<?xml version="1.0"?>
<VTKFile type="UnstructuredGrid"  version="0.1"  >
<UnstructuredGrid>
<Piece  NumberOfPoints="7031" NumberOfCells="37548">
<Points>
<DataArray  type="Float64"  NumberOfComponents="3"  format="ascii">55.5757 51.2446 9.009180000000001  55.8542 50.6492 8.64836  55.6502 50.6052 9.506640000000001  56.4216 48.365 13.1658  57.023 48.3246 12.9075  56.9756 48.144 13.5406  55.6356 49.9376 16.7285  55.6514 50.1146 16.0771  55.2207 49.4045 16.3561  54.9844 45.3036 28.1111  54.7886 44.7352 27.8464  54.4809 44.7275 28.3512  54.0287 46.5608 31.1909  54.8977 46.7393 31.5244  54.8514 46.5937 30.7084  52.4829 42.1756 31.9527  52.6712 41.9883 31.5178  52.7787 41.6374 31.9576  52.1864 42.2545 31.5724  52.1819 42.5174 31.8392  57.429 42.5318 31.4695  57.0935 42.1345 31.0705  57.4407 42.6728 30.998  57.6954 42.7206 31.4733  50.1088 43.8551 32.1487  49.2846 43.625 32.069  49.7212 43.5633 32.8553  56.7571 45.8722 32.5907  56.9842 45.6164 32.4393  56.9411 45.7723 32.1676  57.3211 45.6925 32.4094  57.2531 45.4804 32.5716  51.969 42.8336 32.766  52.0342 43.4024 32.4993  52.0906 43.0497 32.2211  56.9152 45.5344 32.6904  56.9388 45.3424 32.8986  57.1737 45.3328 32.6618  57.222 45.2113 32.7746  57.3719 45.3536 32.7789  57.0449 45.0796 32.9648  59.4395 43.7721 32.7925  59.6914 44.014 33.5236  59.4049 43.2526 33.4851  57.6642 43.7879 33.0318  57.854 43.5557 32.9573  57.9638 43.6646 33.2676  56.9987 44.9524 33.23  57.3012 44.9014 33.0093  57.8054 44.0047 33.2454  57.6412 44.4976 33.2293  57.493 44.7123 33.1453  57.2947 44.4357 33.1962  57.8012 44.7635 33.5236  57.1001 44.6816 33.2534  56.916 45.2505 33.273  57.8521 44.3098 33.4584  56.9853 44.8987 33.668  58.1712 42.987 34.284  58.2823 42.9169 33.5895  59.2508 42.8219 34.3044  57.6299 45.2982 34.8699  58.0674 45.7089 35.6429  58.5657 45.7752 34.9687  45.7975 39.8988 37.7109  46.2034 39.5908 36.9007  45.9476 39.2426 37.5751  45.5012 39.2966 38.318  46.0942 40.5202 39.5459  46.7603 40.5533 39.9368  46.6709 40.8891 39.1361  46.8789 40.1227 40.6469  47.4924 40.1947 40.1375  56.7311 44.2606 40.2252  57.3133 44.7105 39.9994  56.8766 44.3895 39.5791  59.1586 44.1099 40.4376  59.2951 43.4396 40.9733  59.5205 43.3597 40.1836  44.1793 39.1274 43.2336  44.2954 39.2811 42.446  43.645 39.022 42.7477  55.853 41.7179 42.2583  55.4338 42.1047 42.9449  55.6953 42.5125 42.2018  42.6904 38.7208 44.9211  43.0151 38.4855 45.552  43.485 38.6658 44.8662  39.2876 37.3603 45.7612  39.8978 36.6711 45.3073  39.3373 36.4501 45.9413  55.4861 40.3931 45.3783  55.9716 40.1122 45.5809  55.5074 40.0865 46.0421  54.9032 42.2426 47.9588  55.4331 42.6754 47.3232  54.8505 42.2064 47.035  54.7609 39.8091 48.213  55.4829 39.3864 48.0994  55.0258 39.3214 48.8752  58.9694 53.1755 6.65022  58.6899 53.3319 7.37455  59.0533 52.6375 7.22394  56.6435 50.4295 7.44773  56.8755 50.6288 6.63127  57.3782 50.3429 7.15154  58.4833 53.7662 6.84286  56.1887 53.1505 8.28951  55.7017 52.408 8.088050000000001  55.8042 52.4982 8.90254  55.6305 51.2587 8.24527  56.5758 52.8172 10.1089  56.0678 52.3261 10.4302  56.4715 52.4537 10.933  56.3324 48.1282 13.9323  55.7707 48.6473 13.5851  57.0303 47.9015 14.3308  56.7086 47.6183 15.1187  56.3063 47.8654 14.6074  57.5285 47.4615 16.441  57.1496 47.4372 15.7697  57.8086 47.8606 15.8085  57.9323 49.4868 16.9601  57.8294 50.0045 16.3042  57.4688 50.0324 16.8677  57.2911 47.0852 17.096  57.8432 47.6647 17.1139  57.6224 47.206 17.8391  56.0411 43.7248 25.9003  56.5674 44.0705 25.2995  56.7859 43.966 26.1282  56.3536 46.7864 25.4338  55.5129 46.7517 25.3618  55.9103 46.5955 26.1194  54.6495 44.1683 28.0072  54.0593 44.0004 28.4536  53.8516 44.8595 28.7723  54.4236 45.7096 29.7461  53.7837 45.6766 30.1989  54.1712 46.2515 30.2557  52.1317 41.8818 31.1268  52.8378 41.8098 30.9196  52.2377 42.524 32.336  52.6749 41.168 32.4209  52.1864 41.4123 32.9467  52.3914 41.8472 32.4185  58.0887 43.2284 32.9916  58.2579 42.8257 32.3557  58.9717 43.0354 32.8083  57.3868 45.1467 32.9256  56.8444 45.7251 33.1199  52.6453 40.7549 33.0508  57.6011 45.0288 33.1654  57.3404 43.9707 33.2001  57.2182 44.1876 33.3224  57.1518 43.9173 33.6913  57.5337 44.2509 33.1628  57.7124 45.342 33.5625  58.4009 45.4973 37.0389  57.7142 45.3852 36.7449  57.744 45.2856 37.4565  57.5463 42.3892 38.1657  58.1765 41.8158 38.7626  57.2772 42.2205 38.9293  48.2727 39.1783 39.5261  48.5673 39.5838 38.945  48.1378 40.0867 39.5075  56.9355 42.6998 39.2061  56.9305 42.1562 39.647  56.5569 42.931 39.8359  47.9374 39.543 40.219  56.5061 42.1248 40.4293  56.042 42.082 41.3711  56.1055 42.9025 40.7395  43.7996 37.3022 41.6626  43.509 38.1599 41.7133  44.1276 37.8109 40.9938  56.4116 41.3878 41.8043  42.9527 38.1061 42.4236  43.2111 37.4231 42.1559  42.637 37.4552 42.6845  42.6484 35.9478 45.4583  43.1653 36.0281 44.7957  43.5392 36.2931 45.3306  40.8687 35.6346 46.7947  40.6538 35.6933 47.4681  39.9948 35.624 46.8608  55.1292 47.283 22.7239  54.8577 46.9558 22.045  54.8344 46.5711 22.8585  55.391 44.4057 24.3054  56.1489 44.1172 24.6217  55.6713 43.988 25.1677  55.2487 42.6408 46.4464  59.7503 43.261 34.9114  59.3241 42.6866 35.1617  58.6789 52.1078 3.97119  59.0241 52.5803 4.18448  58.7455 51.9651 4.47102  58.2064 49.9027 15.6105  58.2253 49.2792 16.2138  48.0132 41.9823 32.5275  48.3426 42.6525 32.435  48.4082 41.882 31.936  56.1957 39.9557 46.1291  48.8108 42.8488 34.2552  48.0409 42.5766 34.0253  48.347 42.5183 34.8646  55.811 49.0929 19.2265  56.4251 49.2485 19.2517  56.0309 49.3753 18.7616  56.1376 48.4803 20.9785  56.8304 48.2338 21.3164  56.7914 48.5772 20.5533  54.8247 44.3704 27.3607  54.9714 43.7802 27.7562  53.2247 41.5898 31.4995  57.714 43.5125 36.1831  57.9199 42.9339 35.7352  57.8297 42.7705 36.5232  58.8393 41.9868 40.2619  58.9209 42.1527 41.1861  58.3972 41.6151 41.0302  58.0042 41.3309 41.8258  58.5732 41.8169 41.6714  58.5393 41.7632 42.3496  55.9825 39.5883 47.4325  56.3039 39.4648 48.1417  56.1486 49.02 19.6839  56.4555 40.3483 33.6335  56.7455 40.6401 32.8837  57.1187 40.8354 33.6035  55.7732 53.5929 5.32908  55.6182 53.4233 4.58441  55.6006 52.8434 5.10102  57.5459 54.5262 5.84774  57.8738 54.7209 5.16375  56.8883 54.664 5.14267  57.8134 54.0523 7.04383  58.2228 53.7615 7.40963  58.2191 52.904 9.65475  58.2635 53.225 8.75217  57.5533 53.3173 9.212440000000001  57.391 53.0411 9.98814  56.2758 50.5932 15.8609  56.2214 50.3032 16.5909  57.0768 50.4873 16.3146  57.3551 48.0946 20.7269  57.3305 48.5192 19.9934  56.716 46.8911 24.707  57.0856 46.3493 25.3516  57.3046 46.2869 24.5543  57.032 46.9215 23.9821  55.5692 46.5738 31.06  55.4915 46.3626 30.4263  56.9521 45.5082 33.7462  53.3725 41.5446 40.046  52.75 41.0015 39.8402  53.4596 40.5489 39.8895  54.16 41.0864 40.0724  45.655 39.7161 41.7016  45.5538 39.9517 40.9235  44.9813 39.6341 41.3175  42.2588 38.6069 45.6124  42.5501 38.3254 46.2267  43.0666 36.4579 46.2378  43.8938 36.9565 45.8076  43.3589 37.3302 46.3552  42.8145 37.0638 46.8305  56.9963 50.8271 15.4918  56.1035 48.1242 21.8798  51.9595 42.8091 31.8808  51.5597 43.1616 31.9265  51.5838 42.7623 31.9406  51.8396 42.5094 31.7388  47.9294 42.3439 33.1698  48.4563 42.9761 33.377  52.7494 40.4429 33.7579  52.2032 41.0578 33.6527  49.5678 40.2692 34.3142  49.5192 40.3997 33.5617  50.0567 40.787 33.9828  50.1435 42.1206 34.1472  50.1161 41.37 34.4088  50.497 41.4553 33.6537  58.6781 42.4286 34.8748  58.8649 42.3378 35.451  58.2569 42.4681 35.4008  55.944 45.6973 37.0706  55.2013 46.217 36.8552  55.3156 45.9205 37.6304  41.2473 35.7621 45.539  41.8883 35.8351 45.0694  41.8945 35.7563 45.7398  41.4237 35.6773 46.3002  55.6694 52.6984 4.25444  57.7757 43.4035 32.7002  57.3976 43.2169 32.809  57.6251 43.2781 32.5005  57.8647 43.0979 32.3603  54.5661 46.2615 37.4324  57.1522 41.5906 40.2619  57.6214 41.694 39.5174  58.0424 41.5337 40.2572  57.8336 48.2158 14.3949  58.0866 48.362 15.1661  57.4799 47.8112 15.078  57.1609 45.4821 27.3147  56.9702 45.899 26.7204  56.6364 45.9602 27.4179  57.5437 42.7193 33.0338  57.3386 43.2003 33.2594  42.187 35.9704 46.3454  55.9045 54.0293 4.85871  57.5635 48.3556 13.1712  55.1459 48.5264 16.2292  55.5915 47.7512 16.1227  55.1296 47.9851 16.8536  51.6574 41.6626 30.5929  52.2908 41.7852 30.4235  51.4867 42.4066 31.9641  51.4089 41.8642 31.8667  51.7425 42.1147 31.5605  51.8669 43.3773 31.9237  59.7426 43.5469 34.1478  58.3995 42.1504 36.9505  58.4693 42.2916 36.0563  59.1853 42.3735 36.6133  44.4175 37.6976 45.2744  44.9204 38.1188 44.5478  44.2312 38.4301 44.7874  41.7803 38.5024 46.2378  42.0219 38.1089 46.8673  55.0353 47.887 20.5138  55.4431 48.105 21.2034  55.5407 48.4735 20.444  59.8323 44.2998 37.5702  59.5813 44.4303 38.3783  59.8756 43.7116 38.1833  59.9582 43.4914 37.3936  55.73 47.7693 22.6671  56.4728 47.8057 22.685  44.975 39.4842 42.09  54.9786 46.1923 29.9659  55.1587 45.7215 29.4208  56.3955 43.0896 46.0878  56.711 42.8623 46.778  57.1254 42.9084 46.0976  55.5635 42.9158 39.9188  54.8416 42.4821 40.3262  55.4234 42.0975 40.0638  57.2241 40.7505 49.1529  56.5543 40.7254 49.1765  57.0764 40.0252 48.9684  56.3511 47.3873 15.8436  51.1341 41.8902 30.0863  51.0119 41.5255 30.7555  52.2587 40.6937 34.4476  51.7604 41.4121 34.2222  46.3033 39.9408 41.1917  57.6223 43.516 44.118  56.8871 43.655 44.2305  57.2485 43.3986 44.8281  56.5255 53.9773 6.67594  55.9445 53.3746 6.69784  56.3532 53.5805 7.41629  55.8387 52.9033 7.42171  58.4623 50.411 8.249639999999999  57.8458 49.9403 8.466989999999999  57.9475 50.2689 7.7007  56.2027 46.6077 17.9106  55.9657 46.3937 18.68  55.4467 46.9451 18.2455  59.0062 43.4375 32.0908  48.2104 42.0243 36.3263  48.7094 42.2078 35.6338  47.8856 42.2166 35.483  45.6721 40.0897 38.5013  55.5108 41.4 39.7376  55.9241 42.122 39.5537  54.8703 47.0981 20.5147  54.9446 47.437 21.2639  57.0192 49.761 8.8643  56.45 50.2366 8.28847  57.1983 50.0783 7.95768  56.7421 41.5225 41.0367  43.2381 38.026 46.0661  56.0761 53.8048 6.0159  58.7228 52.6366 8.959339999999999  55.0462 48.7947 17.0152  55.4358 49.506 17.2277  52.9698 40.1759 34.4313  48.7712 39.5794 37.6766  48.7435 
[...]
<PointData  Scalars="f_231"> 
<DataArray  type="Float64"  Name="f_231"  format="ascii">0.0000000000000000e+00  0.0000000000000000e+00  0.0000000000000000e+00  0.0000000000000000e+00  0.0000000000000000e+00  0.0000000000000000e+00  0.0000000000000000e+00  0.0000000000000000e+00  0.0000000000000000e+00  0.0000000000000000e+00  0.0000000000000000e+00  0.0000000000000000e+00  0.0000000000000000e+00  0.0000000000000000e+00  0.0000000000000000e+00  0.0000000000000000e+00  0.0000000000000000e+00  0.0000000000000000e+00  0.0000000000000000e+00  0.0000000000000000e+00  0.0000000000000000e+00  0.0000000000000000e+00  0.0000000000000000e+00  0.0000000000000000e+00  0.0000000000000000e+00  0.0000000000000000e+00  0.0000000000000000e+00  0.0000000000000000e+00  0.0000000000000000e+00  0.0000000000000000e+00  0.0000000000000000e+00  0.0000000000000000e+00  0.0000000000000000e+00  0.0000000000000000e+00  0.0000000000000000e+00  0.0000000000000000e+00  0.0000000000000000e+00  0.0000000000000000e+00  0.0000000000000000e+00  0.0000000000000000e+00  0.0000000000000000e+00  0.0000000000000000e+00  0.0000000000000000e+00  0.0000000000000000e+00  0.0000000000000000e+00  0.0000000000000000e+00  0.0000000000000000e+00  0.0000000000000000e+00  0.0000000000000000e+00  0.0000000000000000e+00  0.0000000000000000e+00  0.0000000000000000e+00  0.0000000000000000e+00  0.0000000000000000e+00  0.0000000000000000e+00  0.0000000000000000e+00  0.0000000000000000e+00  0.0000000000000000e+00  0.0000000000000000e+00  0.0000000000000000e+00  0.0000000000000000e+00  0.0000000000000000e+00  0.0000000000000000e+00  0.0000000000000000e+00  0.0000000000000000e+00  0.0000000000000000e+00  0.0000000000000000e+00  0.0000000000000000e+00  0.0000000000000000e+00  0.0000000000000000e+00  0.0000000000000000e+00  0.0000000000000000e+00  0.0000000000000000e+00  0.0000000000000000e+00  0.0000000000000000e+00  0.0000000000000000e+00  0.0000000000000000e+00  0.0000000000000000e+00  0.0000000000000000e+00  0.0000000000000000e+00  0.0000000000000000e+00  0.0000000000000000e+00  0.0000000000000000e+00  0.0000000000000000e+00  0.0000000000000000e+00  0.0000000000000000e+00  0.0000000000000000e+00  0.0000000000000000e+00  0.0000000000000000e+00  0.0000000000000000e+00  0.0000000000000000e+00  0.0000000000000000e+00  0.0000000000000000e+00  0.0000000000000000e+00  0.0000000000000000e+00  0.0000000000000000e+00  0.0000000000000000e+00  0.0000000000000000e+00  0.0000000000000000e+00  3.0000000000000000e+00  0.0000000000000000e+00  0.0000000000000000e+00  0.0000000000000000e+00  0.0000000000000000e+00  0.0000000000000000e+00  0.0000000000000000e+00  0.0000000000000000e+00  0.0000000000000000e+00  0.0000000000000000e+00  0.0000000000000000e+00  0.0000000000000000e+00  0.0000000000000000e+00  0.0000000000000000e+00  0.0000000000000000e+00  0.0000000000000000e+00  0.0000000000000000e+00  0.0000000000000000e+00  0.0000000000000000e+00  0.0000000000000000e+00  0.0000000000000000e+00  0.0000000000000000e+00  0.0000000000000000e+00  0.0000000000000000e+00  0.0000000000000000e+00  0.0000000000000000e+00  0.0000000000000000e+00  0.0000000000000000e+00  0.0000000000000000e+00  0.0000000000000000e+00  0.0000000000000000e+00  0.0000000000000000e+00  0.0000000000000000e+00  0.0000000000000000e+00  0.0000000000000000e+00  0.0000000000000000e+00  0.0000000000000000e+00  0.0000000000000000e+00  0.0000000000000000e+00  0.0000000000000000e+00  0.0000000000000000e+00  0.0000000000000000e+00  0.0000000000000000e+00  0.0000000000000000e+00  0.0000000000000000e+00  0.0000000000000000e+00  0.0000000000000000e+00  0.0000000000000000e+00  0.0000000000000000e+00  0.0000000000000000e+00  0.0000000000000000e+00  0.0000000000000000e+00  0.0000000000000000e+00  0.0000000000000000e+00  0.0000000000000000e+00  0.0000000000000000e+00  0.0000000000000000e+00  0.0000000000000000e+00  0.0000000000000000e+00  0.0000000000000000e+00  0.0000000000000000e+00  0.0000000000000000e+00  0.0000000000000000e+00  0.0000000000000000e+00  0.0000000000000000e+00  0.0000000000000000e+00  0.0000000000000000e+00  0.0000000000000000e+00  0.0000000000000000e+00  0.0000000000000000e+00  0.0000000000000000e+00  0.0000000000000000e+00  0.0000000000000000e+00  0.0000000000000000e+00  0.0000000000000000e+00  0.0000000000000000e+00  0.0000000000000000e+00  0.0000000000000000e+00  0.0000000000000000e+00  0.0000000000000000e+00  0.0000000000000000e+00  0.0000000000000000e+00  0.0000000000000000e+00  0.0000000000000000e+00  0.0000000000000000e+00  0.0000000000000000e+00  2.0000000000000000e+00  2.0000000000000000e+00  0.0000000000000000e+00  0.0000000000000000e+00  0.0000000000000000e+00  0.0000000000000000e+00  0.0000000000000000e+00  0.0000000000000000e+00  0.0000000000000000e+00  0.0000000000000000e+00  0.0000000000000000e+00  1.0000000000000000e+00  1.0000000000000000e+00  0.0000000000000000e+00  0.0000000000000000e+00  0.0000000000000000e+00  0.0000000000000000e+00  0.0000000000000000e+00  0.0000000000000000e+00  0.0000000000000000e+00  0.0000000000000000e+00  0.0000000000000000e+00  0.0000000000000000e+00  0.0000000000000000e+00  0.0000000000000000e+00  0.0000000000000000e+00  0.0000000000000000e+00  0.0000000000000000e+00  0.0000000000000000e+00  0.0000000000000000e+00  0.0000000000000000e+00  0.0000000000000000e+00  0.0000000000000000e+00  0.0000000000000000e+00  0.0000000000000000e+00  0.0000000000000000e+00  0.0000000000000000e+00  0.0000000000000000e+00  0.0000000000000000e+00  0.0000000000000000e+00  0.0000000000000000e+00  0.0000000000000000e+00  0.0000000000000000e+00  0.0000000000000000e+00  0.0000000000000000e+00  0.0000000000000000e+00  0.0000000000000000e+00  0.0000000000000000e+00  1.0000000000000000e+00  0.0000000000000000e+00  0.0000000000000000e+00  1.0000000000000000e+00  1.0000000000000000e+00  0.0000000000000000e+00  0.0000000000000000e+00  0.0000000000000000e+00  0.0000000000000000e+00  0.0000000000000000e+00  0.0000000000000000e+00  0.0000000000000000e+00  0.0000000000000000e+00  0.0000000000000000e+00  0.0000000000000000e+00  0.0000000000000000e+00  0.0000000000000000e+00  0.0000000000000000e+00  0.0000000000000000e+00  0.0000000000000000e+00  0.0000000000000000e+00  0.0000000000000000e+00  0.0000000000000000e+00  0.0000000000000000e+00  0.0000000000000000e+00  0.0000000000000000e+00  0.0000000000000000e+00  0.0000000000000000e+00  0.0000000000000000e+00  0.0000000000000000e+00  0.0000000000000000e+00  0.0000000000000000e+00  0.0000000000000000e+00  0.0000000000000000e+00  0.0000000000000000e+00  0.0000000000000000e+00  0.0000000000000000e+00  0.0000000000000000e+00  0.0000000000000000e+00  0.0000000000000000e+00  0.0000000000000000e+00  0.0000000000000000e+00  0.0000000000000000e+00  0.0000000000000000e+00  0.0000000000000000e+00  0.0000000000000000e+00  0.0000000000000000e+00  0.0000000000000000e+00  0.0000000000000000e+00  0.0000000000000000e+00  0.0000000000000000e+00  0.0000000000000000e+00  0.0000000000000000e+00  0.0000000000000000e+00  0.0000000000000000e+00  0.0000000000000000e+00  0.0000000000000000e+00  0.0000000000000000e+00  0.0000000000000000e+00  0.0000000000000000e+00  0.0000000000000000e+00  0.0000000000000000e+00  1.0000000000000000e+00  0.0000000000000000e+00  0.0000000000000000e+00  0.0000000000000000e+00  0.0000000000000000e+00  0.0000000000000000e+00  0.0000000000000000e+00  0.0000000000000000e+00  0.0000000000000000e+00  0.0000000000000000e+00  0.0000000000000000e+00  0.0000000000000000e+00  0.0000000000000000e+00  0.0000000000000000e+00  0.0000000000000000e+00  0.0000000000000000e+00  0.0000000000000000e+00  0.0000000000000000e+00  1.0000000000000000e+00  0.0000000000000000e+00  0.0000000000000000e+00  0.0000000000000000e+00  0.0000000000000000e+00  0.0000000000000000e+00  0.0000000000000000e+00  0.0000000000000000e+00  0.0000000000000000e+00  0.0000000000000000e+00  0.0000000000000000e+00  0.0000000000000000e+00  0.0000000000000000e+00  0.0000000000000000e+00  0.0000000000000000e+00  0.0000000000000000e+00  0.0000000000000000e+00  0.0000000000000000e+00  0.0000000000000000e+00  0.0000000000000000e+00  0.0000000000000000e+00  0.0000000000000000e+00  0.0000000000000000e+00  0.0000000000000000e+00  0.0000000000000000e+00  0.0000000000000000e+00  0.0000000000000000e+00  0.0000000000000000e+00  0.0000000000000000e+00  0.0000000000000000e+00  0.0000000000000000e+00  0.0000000000000000e+00  0.0000000000000000e+00  0.0000000000000000e+00  0.0000000000000000e+00  0.0000000000000000e+00  0.0000000000000000e+00  0.0000000000000000e+00  3.0000000000000000e+00  3.0000000000000000e+00  3.0000000000000000e+00  0.0000000000000000e+00  0.0000000000000000e+00  0.0000000000000000e+00  0.0000000000000000e+00  0.0000000000000000e+00  0.0000000000000000e+00  0.0000000000000000e+00  0.0000000000000000e+00  0.0000000000000000e+00  0.0000000000000000e+00  0.0000000000000000e+00  0.0000000000000000e+00  0.0000000000000000e+00  0.0000000000000000e+00  0.0000000000000000e+00  0.0000000000000000e+00  0.0000000000000000e+00  0.0000000000000000e+00  0.0000000000000000e+00  0.0000000000000000e+00  0.0000000000000000e+00  0.0000000000000000e+00  0.0000000000000000e+00  0.0000000000000000e+00  0.0000000000000000e+00  0.0000000000000000e+00  0.0000000000000000e+00  0.0000000000000000e+00  0.0000000000000000e+00  0.0000000000000000e+00  0.0000000000000000e+00  0.0000000000000000e+00  0.0000000000000000e+00  0.0000000000000000e+00  0.0000000000000000e+00  0.0000000000000000e+00  0.0000000000000000e+00  0.0000000000000000e+00  0.0000000000000000e+00  0.0000000000000000e+00  0.0000000000000000e+00  0.0000000000000000e+00  0.0000000000000000e+00  0.0000000000000000e+00  0.0000000000000000e+00  0.0000000000000000e+00  0.0000000000000000e+00  0.0000000000000000e+00  0.0000000000000000e+00  0.0000000000000000e+00  0.0000000000000000e+00  0.0000000000000000e+00  0.0000000000000000e+00  0.0000000000000000e+00  0.0000000000000000e+00  0.0000000000000000e+00  0.0000000000000000e+00  0.0000000000000000e+00  0.0000000000000000e+00  0.0000000000000000e+00  0.0000000000000000e+00  0.0000000000000000e+00  0.0000000000000000e+00  0.0000000000000000e+00  0.0000000000000000e+00  0.0000000000000000e+00  0.0000000000000000e+00  0.0000000000000000e+00  0.0000000000000000e+00  0.0000000000000000e+00  1.0000000000000000e+00  0.0000000000000000e+00  0.0000000000000000e+00  0.0000000000000000e+00  0.0000000000000000e+00  0.0000000000000000e+00  0.0000000000000000e+00  0.0000000000000000e+00  0.0000000000000000e+00  0.0000000000000000e+00  0.0000000000000000e+00  0.0000000000000000e+00  0.0000000000000000e+00  0.0000000000000000e+00  0.0000000000000000e+00  0.0000000000000000e+00  0.0000000000000000e+00  0.0000000000000000e+00  3.0000000000000000e+00  0.0000000000000000e+00  0.0000000000000000e+00  0.0000000000000000e+00  0.0000000000000000e+00  0.0000000000000000e+00  0.0000000000000000e+00  0.0000000000000000e+00  0.0000000000000000e+00  0.0000000000000000e+00  0.0000000000000000e+00  0.0000000000000000e+00  0.0000000000000000e+00  0.0000000000000000e+00  0.0000000000000000e+00  0.0000000000000000e+00  0.0000000000000000e+00  0.0000000000000000e+00  0.0000000000000000e+00  0.0000000000000000e+00  0.0000000000000000e+00  0.0000000000000000e+00  0.0000000000000000e+00  0.0000000000000000e+00  0.0000000000000000e+00  0.0000000000000000e+00  0.0000000000000000e+00  0.0000000000000000e+00  0.0000000000000000e+00  0.0000000000000000e+00  0.0000000000000000e+00  0.0000000000000000e+00  0.0000000000000000e+00  0.0000000000000000e+00  0.0000000000000000e+00  0.0000000000000000e+00  0.0000000000000000e+00  0.0000000000000000e+00  0.0000000000000000e+00  0.0000000000000000e+00  0.0000000000000000e+00  0.0000000000000000e+00  0.0000000000000000e+00  0.0000000000000000e+00  0.0000000000000000e+00  0.0000000000000000e+00  0.0000000000000000e+00  0.0000000000000000e+00  0.0000000000000000e+00  0.0000000000000000e+00  0.0000000000000000e+00  0.0000000000000000e+00  0.0000000000000000e+00  0.0000000000000000e+00  0.0000000000000000e+00  0.0000000000000000e+00  0.0000000000000000e+00  0.0000000000000000e+00  0.0000000000000000e+00  0.0000000000000000e+00  0.0000000000000000e+00  0.0000000000000000e+00  0.0000000000000000e+00  0.0000000000000000e+00  0.0000000000000000e+00  0.0000000000000000e+00  0.0000000000000000e+00  0.0000000000000000e+00  0.0000000000000000e+00  0.0000000000000000e+00  0.0000000000000000e+00  0.0000000000000000e+00  0.0000000000000000e+00  0.0000000000000000e+00  0.0000000000000000e+00  0.0000000000000000e+00  0.0000000000000000e+00  0.0000000000000000e+00  0.0000000000000000e+00  0.0000000000000000e+00  0.0000000000000000e+00  0.0000000000000000e+00  0.0000000000000000e+00  0.0000000000000000e+00  0.0000000000000000e+00  0.0000000000000000e+00  0.0000000000000000e+00  0.0000000000000000e+00  0.0000000000000000e+00  0.0000000000000000e+00  0.0000000000000000e+00  0.0000000000000000e+00  3.0000000000000000e+00  0.0000000000000000e+00  0.0000000000000000e+00  0.0000000000000000e+00  0.0000000000000000e+00  0.0000000000000000e+00  0.0000000000000000e+00  0.0000000000000000e+00  0.0000000000000000e+00  0.0000000000000000e+00  0.0000000000000000e+00  0.0000000000000000e+00  0.0000000000000000e+00  0.0000000000000000e+00  0.0000000000000000e+00  0.0000000000000000e+00  0.0000000000000000e+00  0.0000000000000000e+00  0.0000000000000000e+00  0.0000000000000000e+00  0.0000000000000000e+00  0.0000000000000000e+00  0.0000000000000000e+00  0.0000000000000000e+00  0.0000000000000000e+00  0.0000000000000000e+00  0.0000000000000000e+00  0.0000000000000000e+00  0.0000000000000000e+00  0.0000000000000000e+00  0.0000000000000000e+00  0.0000000000000000e+00  0.0000000000000000e+00  0.0000000000000000e+00  0.0000000000000000e+00  0.0000000000000000e+00  0.0000000000000000e+00  0.0000000000000000e+00  0.0000000000000000e+00  0.0000000000000000e+00  0.0000000000000000e+00  0.0000000000000000e+00  0.0000000000000000e+00  0.0000000000000000e+00  0.0000000000000000e+00  0.0000000000000000e+00  0.0000000000000000e+00  0.0000000000000000e+00  0.0000000000000000e+00  0.0000000000000000e+00  0.0000000000000000e+00  0.0000000000000000e+00  0.0000000000000000e+00  0.0000000000000000e+00  0.0000000000000000e+00  0.0000000000000000e+00  0.0000000000000000e+00  0.0000000000000000e+00  0.0000000000000000e+00  0.0000000000000000e+00  0.0000000000000000e+00  0.0000000000000000e+00  0.0000000000000000e+00  0.0000000000000000e+00  0.0000000000000000e+00  0.0000000000000000e+00  0.0000000000000000e+00  0.0000000000000000e+00  0.0000000000000000e+00  0.0000000000000000e+00  0.0000000000000000e+00  0.0000000000000000e+00  0.0000000000000000e+00  0.0000000000000000e+00  0.0000000000000000e+00  0.0000000000000000e+00  0.0000000000000000e+00  0.0000000000000000e+00  0.0000000000000000e+00  0.0000000000000000e+00  0.0000000000000000e+00  0.0000000000000000e+00  0.0000000000000000e+00  0.0000000000000000e+00  0.0000000000000000e+00  0.0000000000000000e+00  0.0000000000000000e+00  0.0000000000000000e+00  0.0000000000000000e+00  0.0000000000000000e+00  0.0000000000000000e+00  0.0000000000000000e+00  0.0000000000000000e+00  0.0000000000000000e+00  0.0000000000000000e+00  0.0000000000000000e+00  0.0000000000000000e+00  0.0000000000000000e+00  0.0000000000000000e+00  0.0000000000000000e+00  0.0000000000000000e+00  0.0000000000000000e+00  0.0000000000000000e+00  0.0000000000000000e+00  0.0000000000000000e+00  0.0000000000000000e+00  0.0000000000000000e+00  0.0000000000000000e+00  0.0000000000000000e+00  0.0000000000000000e+00  0.0000000000000000e+00  0.0000000000000000e+00  0.0000000000000000e+00  0.0000000000000000e+00  0.0000000000000000e+00  0.0000000000000000e+00  0.0000000000000000e+00  0.0000000000000000e+00  0.0000000000000000e+00  0.0000000000000000e+00  0.0000000000000000e+00  3.0000000000000000e+00  3.0000000000000000e+00  0.0000000000000000e+00  0.0000000000000000e+00  0.0000000000000000e+00  0.0000000000000000e+00  0.0000000000000000e+00  0.0000000000000000e+00  0.0000000000000000e+00  0.0000000000000000e+00  0.0000000000000000e+00  0.0000000000000000e+00  0.0000000000000000e+00  0.0000000000000000e+00  0.0000000000000000e+00  0.0000000000000000e+00  0.0000000000000000e+00  0.0000000000000000e+00  0.0000000000000000e+00  0.0000000000000000e+00  0.0000000000000000e+00  0.0000000000000000e+00  0.0000000000000000e+00  0.0000000000000000e+00  0.0000000000000000e+00  0.0000000000000000e+00  0.0000000000000000e+00  0.0000000000000000e+00  0.0000000000000000e+00  0.0000000000000000e+00  0.0000000000000000e+00  0.0000000000000000e+00  0.0000000000000000e+00  0.0000000000000000e+00  0.0000000000000000e+00  0.0000000000000000e+00  0.0000000000000000e+00  0.0000000000000000e+00  0.0000000000000000e+00  0.0000000000000000e+00  0.0000000000000000e+00  0.0000000000000000e+00  0.0000000000000000e+00  0.0000000000000000e+00  0.0000000000000000e+00  0.0000000000000000e+00  0.0000000000000000e+00  0.0000000000000000e+00  0.0000000000000000e+00  0.0000000000000000e+00  0.0000000000000000e+00  0.0000000000000000e+00  0.0000000000000000e+00  0.0000000000000000e+00  0.0000000000000000e+00  0.0000000000000000e+00  0.0000000000000000e+00  0.0000000000000000e+00  0.0000000000000000e+00  0.0000000000000000e+00  0.0000000000000000e+00  0.0000000000000000e+00  0.0000000000000000e+00  0.0000000000000000e+00  0.0000000000000000e+00  0.0000000000000000e+00  0.0000000000000000e+00  0.0000000000000000e+00  0.0000000000000000e+00  0.0000000000000000e+00  0.0000000000000000e+00  0.0000000000000000e+00  0.0000000000000000e+00  0.0000000000000000e+00  0.0000000000000000e+00  0.0000000000000000e+00  0.0000000000000000e+00  0.0000000000000000e+00  0.0000000000000000e+00  0.0000000000000000e+00  0.0000000000000000e+00  0.0000000000000000e+00  0.0000000000000000e+00  0.0000000000000000e+00  0.0000000000000000e+00  0.0000000000000000e+00  0.0000000000000000e+00  0.0000000000000000e+00  0.0000000000000000e+00  0.0000000000000000e+00  0.0000000000000000e+00  0.0000000000000000e+00  0.0000000000000000e+00  0.0000000000000000e+00  0.0000000000000000e+00  0.0000000000000000e+00  0.0000000000000000e+00  0.0000000000000000e+00  0.0000000000000000e+00  0.0000000000000000e+00  0.0000000000000000e+00  0.0000000000000000e+00  0.0000000000000000e+00  0.0000000000000000e+00  0.0000000000000000e+00  0.0000000000000000e+00  0.0000000000000000e+00  0.0000000000000000e+00  0.0000000000000000e+00  0.0000000000000000e+00  0.0000000000000000e+00  0.0000000000000000e+00  0.0000000000000000e+00  0.0000000000000000e+00  0.0000000000000000e+00  0.0000000000000000e+00  0.0000000000000000e+00  0.0000000000000000e+00  0.0000000000000000e+00  0.0000000000000000e+00  0.0000000000000000e+00  0.0000000000000000e+00  0.0000000000000000e+00  0.0000000000000000e+00  0.0000000000000000e+00  0.0000000000000000e+00  0.0000000000000000e+00  0.0000000000000000e+00  0.0000000000000000e+00  0.0000000000000000e+00  0.0000000000000000e+00  0.0000000000000000e+00  0.0000000000000000e+00  0.0000000000000000e+00  0.0000000000000000e+00  0.0000000000000000e+00  0.0000000000000000e+00  0.0000000000000000e+00  0.0000000000000000e+00  3.0000000000000004e+00  3.0000000000000000e+00  2.0000000000000000e+00  2.0000000000000000e+00  2.0000000000000000e+00  0.0000000000000000e+00  0.0000000000000000e+00  2.0000000000000000e+00  0.0000000000000000e+00  0.0000000000000000e+00  0.0000000000000000e+00  0.0000000000000000e+00  0.0000000000000000e+00  0.0000000000000000e+00  0.0000000000000000e+00  0.0000000000000000e+00  0.0000000000000000e+00  0.0000000000000000e+00  0.0000000000000000e+00  0.0000000000000000e+00  0.0000000000000000e+00  0.0000000000000000e+00  0.0000000000000000e+00  0.0000000000000000e+00  0.0000000000000000e+00  0.0000000000000000e+00  0.0000000000000000e+00  0.0000000000000000e+00  0.0000000000000000e+00  0.0000000000000000e+00  0.0000000000000000e+00  0.0000000000000000e+00  0.0000000000000000e+00  0.0000000000000000e+00  0.0000000000000000e+00  0.000000000000000