<?xml version="1.0"?>
<VTKFile type="UnstructuredGrid"  version="0.1"  >
<UnstructuredGrid>
<Piece  NumberOfPoints="181" NumberOfCells="469">
<Points>
<DataArray  type="Float64"  NumberOfComponents="3"  format="ascii">1.25581 -19.96053 15  -3.747626 -19.64575 15  -3.747626 -19.64575 0  1.25581 -19.96053 0  6.18034 -19.02113 15  6.18034 -19.02113 0  19.37166 4.973798 15  20 -4.898587e-15 0  19.37166 4.973798 0  10.71654 -16.88656 15  20 -4.898587e-15 15  10.71654 -16.88656 0  14.57937 -13.69094 15  17.52613 9.635073 15  17.52613 9.635073 0  14.57937 -13.69094 0  17.52613 -9.635073 15  17.52613 -9.635073 0  14.57937 13.69094 15  14.57937 13.69094 0  19.37166 -4.973798 15  19.37166 -4.973798 0  10.71654 16.88656 15  10.71654 16.88656 0  6.18034 19.02113 15  6.18034 19.02113 0  1.25581 19.96053 15  1.25581 19.96053 0  -3.747626 19.64575 15  -3.747626 19.64575 0  -8.515586000000001 18.09654 15  -8.515586000000001 18.09654 0  -12.74848 15.41026 15  -12.74848 15.41026 0  -16.18034 11.75571 15  -16.18034 11.75571 0  -18.59553 7.362491 15  -18.59553 7.362491 0  -19.84229 2.506665 15  -19.84229 2.506665 0  -19.84229 -2.506665 15  -19.84229 -2.506665 0  -18.59553 -7.362491 15  -18.59553 -7.362491 0  -16.18034 -11.75571 15  -16.18034 -11.75571 0  -12.74848 -15.41026 15  -12.74848 -15.41026 0  -8.515586000000001 -18.09654 15  -8.515586000000001 -18.09654 0  5.358268 -8.443279 0  7.289686 -6.845471 0  -6.37424 7.705132 0  -8.090170000000001 5.877853 0  -8.090170000000001 -5.877853 0  -6.37424 -7.705132 0  -4.257793 -9.048271 0  8.763066999999999 -4.817537 0  9.685832 -2.486899 0  -9.297765 -3.681246 0  -4.257793 9.048271 0  -1.873813 9.822873 0  -1.873813 -9.822873 0  10 -2.449294e-15 5e-08  0.6279052000000001 9.980267 0  -9.921146999999999 -1.253332 0  9.685832 2.486899 0  0.6279052000000001 -9.980267 0  3.09017 9.510565 0  8.763066999999999 4.817537 0  -9.921146999999999 1.253332 0  5.358268 8.443279 0  3.09017 -9.510565 0  7.289686 6.845471 0  -9.297765 3.681246 0  0.03422338 -0.7838442 -9.969173  -1.0569 -2.90381 -9.510565  -1.421125 -1.852047 -9.723699  0.6611205999999999 -1.417778 -9.876882999999999  0.4048822 -1.511041 -9.876882999999999  0.1363416 -1.558392 -9.876882999999999  -0.7838442 -0.03422338 -9.969173  6.123234e-16 -1.49976e-31 -10  -1.577134 1.72114 -9.723699  -0.03422338 0.7838442 -9.969173  -1.852047 1.421125 -9.723699  -2.676166 -1.545085 -9.510565  -1.558392 -0.1363416 -9.876882999999999  -3.043223 0.5366024 -9.510565  9.659257999999999 -2.365836e-15 -2.58819  3.043223 0.5366024 -9.510565  5 -1.224647e-15 -8.660254  2.58819 -6.339238e-16 -9.659257999999999  5.523375 2.010344 -8.090170000000001  7.071068 -1.731912e-15 -7.071068  2.676166 1.545085 -9.510565  4.502696 3.778211 -8.090170000000001  1.986323 2.367208 -9.510565  7.967262 1.404843 -5.877853  8.660254 -2.12115e-15 -5  2.938926 5.09037 -8.090170000000001  1.0569 2.90381 -9.510565  7.006293 4.045085 -5.877853  1.020678 5.788555 -8.090170000000001  1.892183e-16 3.09017 -9.510565  5.200261 6.19743 -5.877853  8.937008000000001 3.252805 -3.09017  -1.020678 5.788555 -8.090170000000001  -1.0569 2.90381 -9.510565  2.767001 7.602273 -5.877853  7.285516 6.113273 -3.09017  -2.938926 5.09037 -8.090170000000001  -1.986323 2.367208 -9.510565  4.9538e-16 8.090170000000001 -5.877853  4.755283 8.236390999999999 -3.09017  -4.502696 3.778211 -8.090170000000001  -2.676166 1.545085 -9.510565  -2.767001 7.602273 -5.877853  1.651492 9.366078 -3.09017  -5.523375 2.010344 -8.090170000000001  -5.200261 6.19743 -5.877853  -1.651492 9.366078 -3.09017  -5.877853 7.198293e-16 -8.090170000000001  -3.043223 -0.5366024 -9.510565  -7.006293 4.045085 -5.877853  -4.755283 8.236390999999999 -3.09017  -5.523375 -2.010344 -8.090170000000001  -7.967262 1.404843 -5.877853  -7.285516 6.113273 -3.09017  -4.502696 -3.778211 -8.090170000000001  -1.986323 -2.367208 -9.510565  -7.967262 -1.404843 -5.877853  -8.937008000000001 3.252805 -3.09017  -2.938926 -5.09037 -8.090170000000001  -7.006293 -4.045085 -5.877853  -9.510565 1.164708e-15 -3.09017  -1.020678 -5.788555 -8.090170000000001  -3.312277e-15 -3.09017 -9.510565  -5.200261 -6.19743 -5.877853  -8.937008000000001 -3.252805 -3.09017  1.020678 -5.788555 -8.090170000000001  1.0569 -2.90381 -9.510565  -2.767001 -7.602273 -5.877853  -7.285516 -6.113273 -3.09017  2.938926 -5.09037 -8.090170000000001  1.986323 -2.367208 -9.510565  -8.671654e-15 -8.090170000000001 -5.877853  -4.755283 -8.236390999999999 -3.09017  3.043223 -0.5366024 -9.510565  4.502696 -3.778211 -8.090170000000001  2.676166 -1.545085 -9.510565  2.767001 -7.602273 -5.877853  -1.651492 -9.366078 -3.09017  5.523375 -2.010344 -8.090170000000001  5.200261 -6.19743 -5.877853  1.651492 -9.366078 -3.09017  7.006293 -4.045085 -5.877853  4.755283 -8.236390999999999 -3.09017  7.967262 -1.404843 -5.877853  7.285516 -6.113273 -3.09017  8.937008000000001 -3.252805 -3.09017  1.417778 0.6611205999999999 -9.876882999999999  1.281436 0.8972712 -9.876882999999999  1.106159 1.106159 -9.876882999999999  0.8972712 1.281436 -9.876882999999999  0.6611205999999999 1.417778 -9.876882999999999  0.4048822 1.511041 -9.876882999999999  0.1363416 1.558392 -9.876882999999999  -0.1363416 1.558392 -9.876882999999999  0.8972712 -1.281436 -9.876882999999999  1.106159 -1.106159 -9.876882999999999  1.281436 -0.8972712 -9.876882999999999  1.417778 -0.6611205999999999 -9.876882999999999  14.17780271789589 -1.791072383807708 6.850807267259013  -2.228270745696648e-08 1.413664511229484e-06 -1.633302699488581e-05  0.2563553957266523 0.4440232562639992 -4.981436967199153  0.1023578237130462 -0.01292444953702876 9.091287539049643  -3.426706815944421 2.875348315993595 -2.476458378060062  4.203476595994632 -1.529940821662131 -2.476457108536481  1.602456903785028 4.402711744443228 -2.144424493986173  -2.008301761472965 -3.478480127584512 -3.793455681146589  </DataArray>
</Points>
<Cells>
<DataArray  type="UInt32"  Name="connectivity"  format="ascii">131 135 139 177  151 155 157 178  93 96 102 179  83 84 168 175  78 79 141 175  78 141 169 175  122 126 131 180  140 144 151 180  91 93 94 178  79 80 137 175  84 164 165 175  146 151 155 180  84 166 167 175  84 165 166 175  75 78 79 175  145 169 170 175  145 170 171 175  84 167 168 175  122 127 131 177  75 78 169 175  140 141 144 175  122 123 126 175  81 87 88 175  93 98 102 178  144 151 154 178  127 131 135 177  81 86 87 175  75 79 80 175  151 155 178 180  93 94 98 178  82 169 170 175  141 144 145 175  88 122 123 175  75 76 80 175  150 171 172 175  144 145 149 175  88 119 122 175  82 170 171 175  102 106 110 179  98 102 106 178  82 92 161 175  131 134 139 180  91 148 153 175  82 171 172 175  137 140 141 180  86 123 126 180  81 83 85 175  81 83 84 175  145 149 150 175  88 116 119 175  75 77 81 175  131 139 177 180  82 161 162 175  149 150 153 175  115 116 119 175  82 162 163 175  75 76 77 175  83 85 112 175  90 91 92 175  82 163 164 175  91 94 153 178  151 154 157 178  82 84 164 175  77 81 86 175  95 162 163 175  101 166 167 175  95 161 162 175  76 77 130 175  82 92 172 175  107 113 117 179  96 102 105 179  97 164 165 175  148 150 153 175  112 115 116 175  91 92 148 175  111 112 115 175  104 167 168 175  97 163 164 175  101 165 166 175  119 122 127 177  107 111 117 177  90 91 93 175  81 85 88 175  77 86 130 175  93 102 175 178  83 108 168 175  144 149 154 178  140 146 151 180  126 131 134 180  79 137 141 175  146 152 155 180  75 82 169 175  122 131 177 180  76 80 137 175  93 96 175 179  93 102 175 179  108 111 112 175  144 151 178 180  134 139 143 180  107 108 111 175  92 148 172 175  86 87 123 175  141 145 169 175  87 88 123 175  136 137 140 180  86 126 129 180  93 95 96 175  103 104 107 175  90 93 95 175  104 107 108 175  145 150 171 175  103 107 113 179  96 100 105 179  102 106 178 179  85 88 116 175  81 82 84 175  96 97 100 175  100 101 103 175  85 112 116 175  95 96 97 175  101 103 104 175  90 92 161 175  102 105 110 179  97 100 101 175  148 150 172 175  98 99 106 178  117 121 125 177  140 144 175 180  122 126 175 180  127 132 135 177  119 122 175 177  91 93 175 178  144 149 175 178  76 136 137 180  86 129 130 180  75 81 82 175  89 99 106 178  113 117 121 179  140 141 175 180  123 126 175 180  154 157 159 178  7 58 63 173  83 108 112 175  119 124 127 177  111 117 120 177  90 95 161 175  104 108 168 175  149 154 156 178  107 111 175 177  137 141 175 180  86 123 175 180  91 153 175 178  95 97 163 175  101 104 167 175  100 103 109 179  97 101 165 175  65 135 139 177  107 117 177 179  136 140 146 180  126 129 134 180  115 119 175 177  94 153 158 178  76 130 133 180  72 155 157 178  149 153 175 178  103 107 175 179  103 109 113 179  100 105 109 179  115 119 124 177  111 115 120 177  134 138 143 180  68 71 174 179  76 133 136 180  129 130 133 180  10 63 173 176  96 100 175 179  149 153 156 178  111 115 175 177  64 68 174 179  138 143 147 180  94 98 99 178  72 155 178 180  102 175 178 179  117 120 125 177  122 175 177 180  144 175 178 180  142 146 152 180  59 139 177 180  94 99 158 178  100 103 175 179  154 156 159 178  142 147 152 180  71 73 174 179  115 120 124 177  76 137 175 180  86 130 175 180  117 121 177 179  153 156 158 178  13 14 66 69  6 8 63 66  23 24 68 71  25 26 64 68  113 118 121 179  124 127 132 177  76 130 175 180  54 139 143 180  67 152 155 180  7 21 58 173  105 110 114 179  136 142 146 180  129 134 138 180  120 125 128 177  61 64 174 179  138 142 147 180  52 53 174 177  57 58 174 178  60 174 177 179  107 175 177 179  109 113 118 179  53 74 174 177  69 106 110 179  156 159 160 178  58 63 174 178  89 99 160 178  27 28 61 64  20 21 57 58  124 128 132 177  51 57 174 178  120 124 128 177  52 60 174 177  99 158 160 178  156 158 160 178  69 106 178 179  133 136 142 180  129 133 138 180  105 109 114 179  60 61 177 179  22 23 24 71  19 22 23 71  23 24 25 68  6 7 8 63  25 26 27 64  6 7 10 63  8 13 14 66  6 8 13 66  24 25 26 68  65 70 174 176  59 65 174 176  55 143 147 180  20 58 173 176  70 74 174 176  54 59 174 176  69 73 174 179  133 138 142 180  54 55 174 176  109 114 118 179  70 74 174 177  69 174 178 179  53 74 174 176  63 66 174 178  66 89 106 178  56 147 152 180  59 65 139 177  67 72 155 180  59 174 177 180  16 17 51 57  29 30 60 61  60 121 125 177  55 56 174 176  72 174 178 180  70 132 135 177  51 157 159 178  52 53 174 176  50 51 174 178  7 10 21 173  26 27 28 64  27 28 29 61  17 20 21 57  60 61 174 179  56 62 174 176  52 60 174 176  12 15 50 51  31 32 52 60  26 64 68 176  61 121 177 179  55 56 174 180  28 61 64 176  65 70 174 177  10 20 21 173  54 55 174 180  62 67 174 176  60 61 174 176  29 30 31 60  15 16 17 51  66 69 174 178  30 60 61 176  56 62 174 180  50 72 157 178  32 52 60 176  50 72 174 178  24 68 71 176  54 59 139 180  62 67 174 180  66 69 106 178  34 52 53 176  54 59 174 180  33 34 52 53  65 70 135 177  67 72 174 180  73 110 114 179  61 64 174 176  67 72 174 176  36 53 74 176  59 65 174 177  62 67 152 180  24 26 68 176  28 29 30 61  16 17 20 57  26 28 64 176  38 70 74 176  31 32 33 52  11 12 15 50  64 118 121 179  54 55 143 180  40 65 70 176  36 37 53 74  4 5 50 72  52 125 128 177  50 72 174 176  64 68 174 176  42 59 65 176  53 128 132 177  58 89 160 178  22 24 71 176  57 159 160 178  44 54 59 176  13 66 69 176  46 54 55 176  6 63 66 176  28 30 61 176  5 9 11 50  33 34 35 53  55 56 147 180  38 39 70 74  0 3 67 72  0 2 62 67  48 55 56 176  69 73 110 179  50 51 174 176  68 71 174 176  58 63 173 176  20 57 58 176  1 56 62 176  1 49 56 62  40 41 65 70  56 62 152 180  71 73 174 176  47 48 55 56  60 61 121 177  35 36 37 53  3 4 5 72  0 62 67 176  51 57 174 176  42 43 59 65  46 47 54 55  18 19 71 73  18 19 69 73  174 175 177 180  16 51 57 176  174 175 178 180  30 32 60 176  44 45 54 59  12 15 16 51  30 31 32 60  6 13 66 176  69 73 174 176  12 50 51 176  6 10 63 176  50 51 157 178  63 66 89 178  57 58 174 176  68 114 118 179  0 2 3 67  37 38 39 74  0 67 72 176  174 175 178 179  66 69 174 176  58 63 174 176  63 66 174 176  4 50 72 176  39 40 41 70  1 2 49 62  32 34 52 176  70 74 132 177  47 48 49 56  41 42 43 65  43 44 45 59  45 46 47 54  18 19 22 71  14 18 19 69  13 14 18 69  10 20 173 176  34 36 53 176  174 175 177 179  32 33 34 52  9 11 12 50  52 60 125 177  61 64 121 179  36 38 74 176  51 57 159 178  16 20 57 176  71 73 114 179  58 63 89 178  38 40 70 176  53 74 132 177  34 35 36 53  4 5 9 50  40 42 65 176  52 53 128 177  18 71 73 176  57 58 160 178  12 16 51 176  42 44 59 176  18 69 73 176  64 68 118 179  44 46 54 176  46 48 55 176  9 12 50 176  0 3 4 72  36 37 38 74  18 22 71 176  1 48 56 176  4 9 50 176  0 1 62 176  0 4 72 176  68 71 114 179  13 18 69 176  38 39 40 70  0 1 2 62  1 48 49 56  40 41 42 65  46 47 48 55  42 43 44 59  44 45 46 54  7 10 63 173  20 21 58 173  18 42 44 176  4 9 18 176  0 1 18 176  18 46 48 176  0 4 18 176  18 44 46 176  12 16 18 176  9 12 18 176  1 18 48 176  18 30 32 176  18 36 38 176  18 40 42 176  18 38 40 176  18 34 36 176  18 32 34 176  18 28 30 176  18 26 28 176  18 24 26 176  18 22 24 176  6 13 18 176  6 10 18 176  10 18 20 176  16 18 20 176  </DataArray>
<DataArray  type="UInt32"  Name="offsets"  format="ascii">4 8 12 16 20 24 28 32 36 40 44 48 52 56 60 64 68 72 76 80 84 88 92 96 100 104 108 112 116 120 124 128 132 136 140 144 148 152 156 160 164 168 172 176 180 184 188 192 196 200 204 208 212 216 220 224 228 232 236 240 244 248 252 256 260 264 268 272 276 280 284 288 292 296 300 304 308 312 316 320 324 328 332 336 340 344 348 352 356 360 364 368 372 376 380 384 388 392 396 400 404 408 412 416 420 424 428 432 436 440 444 448 452 456 460 464 468 472 476 480 484 488 492 496 500 504 508 512 516 520 524 528 532 536 540 544 548 552 556 560 564 568 572 576 580 584 588 592 596 600 604 608 612 616 620 624 628 632 636 640 644 648 652 656 660 664 668 672 676 680 684 688 692 696 700 704 708 712 716 720 724 728 732 736 740 744 748 752 756 760 764 768 772 776 780 784 788 792 796 800 804 808 812 816 820 824 828 832 836 840 844 848 852 856 860 864 868 872 876 880 884 888 892 896 900 904 908 912 916 920 924 928 932 936 940 944 948 952 956 960 964 968 972 976 980 984 988 992 996 1000 1004 1008 1012 1016 1020 1024 1028 1032 1036 1040 1044 1048 1052 1056 1060 1064 1068 1072 1076 1080 1084 1088 1092 1096 1100 1104 1108 1112 1116 1120 1124 1128 1132 1136 1140 1144 1148 1152 1156 1160 1164 1168 1172 1176 1180 1184 1188 1192 1196 1200 1204 1208 1212 1216 1220 1224 1228 1232 1236 1240 1244 1248 1252 1256 1260 1264 1268 1272 1276 1280 1284 1288 1292 1296 1300 1304 1308 1312 1316 1320 1324 1328 1332 1336 1340 1344 1348 1352 1356 1360 1364 1368 1372 1376 1380 1384 1388 1392 1396 1400 1404 1408 1412 1416 1420 1424 1428 1432 1436 1440 1444 1448 1452 1456 1460 1464 1468 1472 1476 1480 1484 1488 1492 1496 1500 1504 1508 1512 1516 1520 1524 1528 1532 1536 1540 1544 1548 1552 1556 1560 1564 1568 1572 1576 1580 1584 1588 1592 1596 1600 1604 1608 1612 1616 1620 1624 1628 1632 1636 1640 1644 1648 1652 1656 1660 1664 1668 1672 1676 1680 1684 1688 1692 1696 1700 1704 1708 1712 1716 1720 1724 1728 1732 1736 1740 1744 1748 1752 1756 1760 1764 1768 1772 1776 1780 1784 1788 1792 1796 1800 1804 1808 1812 1816 1820 1824 1828 1832 1836 1840 1844 1848 1852 1856 1860 1864 1868 1872 1876 </DataArray>
<DataArray  type="UInt8"  Name="types"  format="ascii">10 10 10 10 10 10 10 10 10 10 10 10 10 10 10 10 10 10 10 10 10 10 10 10 10 10 10 10 10 10 10 10 10 10 10 10 10 10 10 10 10 10 10 10 10 10 10 10 10 10 10 10 10 10 10 10 10 10 10 10 10 10 10 10 10 10 10 10 10 10 10 10 10 10 10 10 10 10 10 10 10 10 10 10 10 10 10 10 10 10 10 10 10 10 10 10 10 10 10 10 10 10 10 10 10 10 10 10 10 10 10 10 10 10 10 10 10 10 10 10 10 10 10 10 10 10 10 10 10 10 10 10 10 10 10 10 10 10 10 10 10 10 10 10 10 10 10 10 10 10 10 10 10 10 10 10 10 10 10 10 10 10 10 10 10 10 10 10 10 10 10 10 10 10 10 10 10 10 10 10 10 10 10 10 10 10 10 10 10 10 10 10 10 10 10 10 10 10 10 10 10 10 10 10 10 10 10 10 10 10 10 10 10 10 10 10 10 10 10 10 10 10 10 10 10 10 10 10 10 10 10 10 10 10 10 10 10 10 10 10 10 10 10 10 10 10 10 10 10 10 10 10 10 10 10 10 10 10 10 10 10 10 10 10 10 10 10 10 10 10 10 10 10 10 10 10 10 10 10 10 10 10 10 10 10 10 10 10 10 10 10 10 10 10 10 10 10 10 10 10 10 10 10 10 10 10 10 10 10 10 10 10 10 10 10 10 10 10 10 10 10 10 10 10 10 10 10 10 10 10 10 10 10 10 10 10 10 10 10 10 10 10 10 10 10 10 10 10 10 10 10 10 10 10 10 10 10 10 10 10 10 10 10 10 10 10 10 10 10 10 10 10 10 10 10 10 10 10 10 10 10 10 10 10 10 10 10 10 10 10 10 10 10 10 10 10 10 10 10 10 10 10 10 10 10 10 10 10 10 10 10 10 10 10 10 10 10 10 10 10 10 10 10 10 10 10 10 10 10 10 10 10 10 10 10 10 10 10 10 10 10 10 10 10 10 10 10 10 10 10 10 10 10 10 10 10 10 10 10 10 10 10 10 10 10 10 10 10 10 </DataArray>
</Cells>
<PointData  Scalars="f_68"> 
<DataArray  type="Float64"  Name="f_68"  format="ascii">-2.1685796657945776e+16  -2.1685796657945776e+16  -2.1685796657945792e+16  -2.1685796657945788e+16  -2.1685796657945768e+16  -2.1685796657945784e+16  -2.1685796657945856e+16  -2.1685796657945820e+16  -2.1685796657945840e+16  -2.1685796657945772e+16  -2.1685796657945828e+16  -2.1685796657945788e+16  -2.1685796657945776e+16  -2.1685796657945884e+16  -2.1685796657945848e+16  -2.1685796657945792e+16  -2.1685796657945788e+16  -2.1685796657945804e+16  -2.1685796657945908e+16  -2.1685796657945848e+16  -2.1685796657945804e+16  -2.1685796657945812e+16  -2.1685796657945908e+16  -2.1685796657945856e+16  -2.1685796657945900e+16  -2.1685796657945856e+16  -2.1685796657945888e+16  -2.1685796657945852e+16  -2.1685796657945872e+16  -2.1685796657945852e+16  -2.1685796657945848e+16  -2.1685796657945836e+16  -2.1685796657945832e+16  -2.1685796657945820e+16  -2.1685796657945820e+16  -2.1685796657945812e+16  -2.1685796657945812e+16  -2.1685796657945804e+16  -2.1685796657945796e+16  -2.1685796657945804e+16  -2.1685796657945800e+16  -2.1685796657945804e+16  -2.1685796657945792e+16  -2.1685796657945808e+16  -2.1685796657945788e+16  -2.1685796657945800e+16  -2.1685796657945780e+16  -2.1685796657945800e+16  -2.1685796657945780e+16  -2.1685796657945804e+16  -2.1685796657945792e+16  -2.1685796657945792e+16  -2.1685796657945812e+16  -2.1685796657945812e+16  -2.1685796657945816e+16  -2.1685796657945816e+16  -2.1685796657945808e+16  -2.1685796657945808e+16  -2.1685796657945820e+16  -2.1685796657945820e+16  -2.1685796657945832e+16  -2.1685796657945840e+16  -2.1685796657945800e+16  -2.1685796657945820e+16  -2.1685796657945848e+16  -2.1685796657945808e+16  -2.1685796657945836e+16  -2.1685796657945792e+16  -2.1685796657945860e+16  -2.1685796657945848e+16  -2.1685796657945808e+16  -2.1685796657945852e+16  -2.1685796657945796e+16  -2.1685796657945852e+16  -2.1685796657945804e+16  -2.1685796657945792e+16  -2.1685796657945800e+16  -2.1685796657945792e+16  -2.1685796657945784e+16  -2.1685796657945788e+16  -2.1685796657945792e+16  -2.1685796657945800e+16  -2.1685796657945788e+16  -2.1685796657945812e+16  -2.1685796657945796e+16  -2.1685796657945812e+16  -2.1685796657945792e+16  -2.1685796657945800e+16  -2.1685796657945804e+16  -2.1685796657945824e+16  -2.1685796657945816e+16  -2.1685796657945820e+16  -2.1685796657945824e+16  -2.1685796657945820e+16  -2.1685796657945824e+16  -2.1685796657945812e+16  -2.1685796657945824e+16  -2.1685796657945812e+16  -2.1685796657945824e+16  -2.1685796657945816e+16  -2.1685796657945824e+16  -2.1685796657945812e+16  -2.1685796657945828e+16  -2.1685796657945828e+16  -2.1685796657945812e+16  -2.1685796657945836e+16  -2.1685796657945832e+16  -2.1685796657945832e+16  -2.1685796657945820e+16  -2.1685796657945836e+16  -2.1685796657945840e+16  -2.1685796657945840e+16  -2.1685796657945816e+16  -2.1685796657945844e+16  -2.1685796657945836e+16  -2.1685796657945828e+16  -2.1685796657945812e+16  -2.1685796657945832e+16  -2.1685796657945844e+16  -2.1685796657945816e+16  -2.1685796657945824e+16  -2.1685796657945840e+16  -2.1685796657945812e+16  -2.1685796657945792e+16  -2.1685796657945820e+16  -2.1685796657945820e+16  -2.1685796657945808e+16  -2.1685796657945816e+16  -2.1685796657945812e+16  -2.1685796657945808e+16  -2.1685796657945788e+16  -2.1685796657945820e+16  -2.1685796657945804e+16  -2.1685796657945808e+16  -2.1685796657945820e+16  -2.1685796657945812e+16  -2.1685796657945812e+16  -2.1685796657945796e+16  -2.1685796657945812e+16  -2.1685796657945816e+16  -2.1685796657945812e+16  -2.1685796657945800e+16  -2.1685796657945816e+16  -2.1685796657945816e+16  -2.1685796657945824e+16  -2.1685796657945808e+16  -2.1685796657945816e+16  -2.1685796657945812e+16  -2.1685796657945824e+16  -2.1685796657945828e+16  -2.1685796657945808e+16  -2.1685796657945816e+16  -2.1685796657945808e+16  -2.1685796657945832e+16  -2.1685796657945820e+16  -2.1685796657945812e+16  -2.1685796657945816e+16  -2.1685796657945808e+16  -2.1685796657945820e+16  -2.1685796657945808e+16  -2.1685796657945820e+16  -2.1685796657945812e+16  -2.1685796657945808e+16  -2.1685796657945812e+16  -2.1685796657945812e+16  -2.1685796657945812e+16  -2.1685796657945800e+16  -2.1685796657945796e+16  -2.1685796657945792e+16  -2.1685796657945784e+16  -2.1685796657945788e+16  -2.1685796657945792e+16  -2.1685796657945796e+16  -2.1685796657945816e+16  -2.1685796657945828e+16  -2.1685796657945808e+16  -2.1685796657945836e+16  -2.1685796657945812e+16  -2.1685796657945812e+16  -2.1685796657945840e+16  -2.1685796657945816e+16  </DataArray> 
</PointData> 
</Piece>
</UnstructuredGrid>
</VTKFile>