<?xml version="1.0"?>
<VTKFile type="UnstructuredGrid"  version="0.1"  >
<UnstructuredGrid>
<Piece  NumberOfPoints="236" NumberOfCells="726">
<Points>
<DataArray  type="Float64"  NumberOfComponents="3"  format="ascii">3.644843 3.422736 50  5 -1.224647e-15 50  4.842916 1.243449 50  4.381533 2.408768 50  2.679134 4.22164 50  1.545085 4.755283 50  0.3139526 4.990134 50  -0.9369066 4.911436 50  -2.128896 4.524135 50  -3.18712 3.852566 50  -4.045085 2.938926 50  -4.648882 1.840623 50  -4.960574 0.6266662 50  -4.960574 -0.6266662 50  -4.648882 -1.840623 50  -4.045085 -2.938926 50  -3.18712 -3.852566 50  -2.128896 -4.524135 50  -0.9369066 -4.911436 50  0.3139526 -4.990134 50  1.545085 -4.755283 50  2.679134 -4.22164 50  3.644843 -3.422736 50  4.381533 -2.408768 50  4.842916 -1.243449 50  -0.9369066 -4.911436 8.660254  0.3139526 -4.990134 8.660254  1.545085 -4.755283 8.660254  2.679134 -4.22164 8.660254  5 -1.224647e-15 8.660254  4.842916 1.243449 8.660254  3.644843 -3.422736 8.660254  4.381533 2.408768 8.660254  4.381533 -2.408768 8.660254  3.644843 3.422736 8.660254  4.842916 -1.243449 8.660254  2.679134 4.22164 8.660254  1.545085 4.755283 8.660254  0.3139526 4.990134 8.660254  -0.9369066 4.911436 8.660254  -2.128896 4.524135 8.660254  -3.18712 3.852566 8.660254  -4.045085 2.938926 8.660254  -4.648882 1.840623 8.660254  -4.960574 0.6266662 8.660254  -4.960574 -0.6266662 8.660254  -4.648882 -1.840623 8.660254  -4.045085 -2.938926 8.660254  -3.18712 -3.852566 8.660254  -2.128896 -4.524135 8.660254  3.043807 -5.272029 -7.933533  1.099388 -3.020543 -9.469301  2.066173 -2.462369 -9.469301  1.057103 -5.99513 -7.933533  -2.571444 7.064983 6.593458  -1.6043 9.098437000000001 3.826834  -4.619398 8.001030999999999 3.826834  2.129789e-15 7.518398 6.593458  -9.826992000000001 -1.732764 0.6540313  -9.659257999999999 1.182918e-15 -2.58819  -9.076734 -3.303661 -2.58819  -9.826992000000001 1.732764 0.6540313  -8.912319000000001e-15 -8.314696 -5.555702  -2.843794 -7.813259 -5.555702  -1.057103 -5.99513 -7.933533  3.165561 -0.5581738000000001 -9.469301  2.58819 -6.339238e-16 -9.659257999999999  5 -1.224647e-15 -8.660254  -8.681628 3.159854 3.826834  -8.641712 4.989295 0.6540313  -7.077328 5.938583 3.826834  -4.829629 -8.365163000000001 -2.58819  -5.344584 -6.369427 -5.555702  -7.399421 -6.208852 -2.58819  7.071068 -1.731912e-15 7.071068  4.663383 -3.913043 -7.933533  2.783747 -1.607197 -9.469301  -4.832733 5.759427 6.593458  -8.641712 -4.989295 0.6540313  2.843794 -7.813259 -5.555702  -9.238795 1.131426e-15 3.826834  -1.677313 -9.512511999999999 -2.58819  5.720486 -2.082087 -7.933533  7.071068 -1.731912e-15 -7.071068  -6.511124 3.759199 6.593458  -6.414114 -7.644043 0.6540313  5.344584 -6.369427 -5.555702  -8.681628 -3.159854 3.826834  1.677313 -9.512511999999999 -2.58819  -7.404177 1.305556 6.593458  -3.412879 -9.376806999999999 0.6540313  7.200738 -4.157348 -5.555702  -7.077328 -5.938583 3.826834  4.829629 -8.365163000000001 -2.58819  -7.404177 -1.305556 6.593458  -1.06958e-14 -9.978588999999999 0.6540313  8.188376999999999 -1.443832 -5.555702  8.660254 -2.12115e-15 -5  -4.619398 -8.001030999999999 3.826834  3.165561 0.5581738000000001 -9.469301  7.399421 -6.208852 -2.58819  -6.511124 -3.759199 6.593458  3.412879 -9.376806999999999 0.6540313  5.720486 2.082087 -7.933533  2.783747 1.607197 -9.469301  -1.6043 -9.098437000000001 3.826834  9.076734 -3.303661 -2.58819  9.659257999999999 -2.365836e-15 -2.58819  10 -2.449294e-15 -1.267943e-13  -4.832733 -5.759427 6.593458  6.414114 -7.644043 0.6540313  4.663383 3.913043 -7.933533  2.066173 2.462369 -9.469301  1.6043 -9.098437000000001 3.826834  8.188376999999999 1.443832 -5.555702  -2.571444 -7.064983 6.593458  8.641712 -4.989295 0.6540313  3.043807 5.272029 -7.933533  4.619398 -8.001030999999999 3.826834  1.099388 3.020543 -9.469301  7.200738 4.157348 -5.555702  -8.058786e-15 -7.518398 6.593458  9.826992000000001 -1.732764 0.6540313  9.659257999999999 -2.365836e-15 2.58819  7.077328 -5.938583 3.826834  2.571444 -7.064983 6.593458  8.681628 -3.159854 3.826834  1.057103 5.99513 -7.933533  9.105639e-16 3.214395 -9.469301  8.660254 -2.12115e-15 5  4.832733 -5.759427 6.593458  5.344584 6.369427 -5.555702  6.511124 -3.759199 6.593458  7.404177 -1.305556 6.593458  1.476334 0.688426 -9.866433000000001  9.076734 3.303661 -2.58819  6.123234e-16 -1.49976e-31 -10  1.334362 0.9343301000000001 -9.866433000000001  -1.057103 5.99513 -7.933533  -1.099388 3.020543 -9.469301  1.151845 1.151845 -9.866433000000001  2.843794 7.813259 -5.555702  0.9343301000000001 1.334362 -9.866433000000001  0.688426 1.476334 -9.866433000000001  7.399421 6.208852 -2.58819  0.4216045 1.573449 -9.866433000000001  -3.043807 5.272029 -7.933533  0.1419728 1.622756 -9.866433000000001  -2.066173 2.462369 -9.469301  -0.1419728 1.622756 -9.866433000000001  9.826992000000001 1.732764 0.6540313  0.1419728 -1.622756 -9.866433000000001  -3.445431e-15 -3.214395 -9.469301  -1.099388 -3.020543 -9.469301  2.355362e-15 8.314696 -5.555702  0.4216045 -1.573449 -9.866433000000001  0.688426 -1.476334 -9.866433000000001  0.9343301000000001 -1.334362 -9.866433000000001  4.829629 8.365163000000001 -2.58819  1.151845 -1.151845 -9.866433000000001  1.334362 -0.9343301000000001 -9.866433000000001  1.476334 -0.688426 -9.866433000000001  -4.663383 3.913043 -7.933533  0.5520996 0.602511 -9.966552  -2.783747 1.607197 -9.469301  8.641712 4.989295 0.6540313  -1.64155 1.791438 -9.700313  -1.927691 1.47917 -9.700313  -2.843794 7.813259 -5.555702  -1.622756 -0.1419728 -9.866433000000001  -3.165561 -0.5581738000000001 -9.469301  -3.165561 0.5581738000000001 -9.469301  -2.783747 -1.607197 -9.469301  -0.5520996 -0.602511 -9.966552  1.677313 9.512511999999999 -2.58819  -1.47917 -1.927691 -9.700313  -2.066173 -2.462369 -9.469301  -0.602511 0.5520996 -9.966552  -5.720486 2.082087 -7.933533  -1.159144 0.3934762 -9.924795  6.414114 7.644043 0.6540313  -5.344584 6.369427 -5.555702  8.681628 3.159854 3.826834  -1.677313 9.512511999999999 -2.58819  -6.087614 7.455177e-16 -7.933533  3.412879 9.376806999999999 0.6540313  -7.200738 4.157348 -5.555702  7.077328 5.938583 3.826834  -4.829629 8.365163000000001 -2.58819  -5.720486 -2.082087 -7.933533  7.404177 1.305556 6.593458  2.826704e-15 9.978588999999999 0.6540313  -8.188376999999999 1.443832 -5.555702  4.619398 8.001030999999999 3.826834  -7.399421 6.208852 -2.58819  -4.663383 -3.913043 -7.933533  6.511124 3.759199 6.593458  -3.412879 9.376806999999999 0.6540313  -8.188376999999999 -1.443832 -5.555702  1.6043 9.098437000000001 3.826834  -9.076734 3.303661 -2.58819  -3.043807 -5.272029 -7.933533  4.832733 5.759427 6.593458  -6.414114 7.644043 0.6540313  -7.200738 -4.157348 -5.555702  2.571444 7.064983 6.593458  5.010385632578621e-08 -1.134156155412929e-16 29.33012700000001  9.634597080143692e-07 9.634597081253915e-07 -8.030946380799264e-06  -0.02075983973539951 0.4754783841114012 -4.989189558192328  -4.237984807296518 1.542500496326917 -2.352661126104535  4.215052476682343 1.534153811039101 -2.388631054812322  -0.2165955654407329 4.626667499804825 -2.075468465645247  0.7176980341108328 -4.07026185077225 -2.908188261078806  4.000993797419132 -0.1022767172679118 3.070071246965973  0.7631619879973551 0.4406138679630212 -7.423123816235323  -0.7545271497477176 -4.697130035218399 3.363326197496596  -4.342688206392476 1.680910309646595 3.402183680099218  0.5420258391134514 3.532582259624581 3.555132135686473  -3.779853396790005 -3.20980881746603 -0.9869587023071833  4.684766033753167 -2.832982852010516 -0.7005725377276117  3.015916865881203 -1.741240561247849 -5.322842975505386  -3.267952975918444 -1.886753685554877 -4.751076715535177  4.234404879576258 3.853472652148696 1.286257957825307  -2.66101313262995 5.19114587304165 1.336258336665413  -1.955537014205478 0.1288095987839357 -7.31801463647644  2.389370130489171 2.847541233856074 -5.590372518184513  -4.422021744258449 -2.96234961844646 3.349264222534257  3.500503869871668 -4.040133083552925 3.437790505047745  -0.2469174405567164 -2.421344877966396 -6.363994977366222  -2.499827106641983 2.979178695617759 -5.296209649096649  0.1066381122350064 -0.4354038448732352 3.990347854355361  -1.381449685727879 -6.233203398070311 -0.4359066852885325  -6.17496927037148 -0.4775694626255902 0.295889346924453  1.120307252680207 6.3535732536624 1.052665864935639  2.511866727380379 -5.828645392965344 -0.1318675169660981  3.322855012624025 5.038086111652027 -2.833306465914903  </DataArray>
</Points>
<Cells>
[...]
<PointData  Scalars="f_14"> 
<DataArray  type="Float64"  Name="f_14"  format="ascii">-4.8298219153672820e+15  -4.8298219153672830e+15  -4.8298219153672820e+15  -4.8298219153672820e+15  -4.8298219153672840e+15  -4.8298219153672870e+15  -4.8298219153672900e+15  -4.8298219153672940e+15  -4.8298219153672970e+15  -4.8298219153672990e+15  -4.8298219153673020e+15  -4.8298219153673020e+15  -4.8298219153672990e+15  -4.8298219153672970e+15  -4.8298219153672960e+15  -4.8298219153672950e+15  -4.8298219153672950e+15  -4.8298219153672940e+15  -4.8298219153672920e+15  -4.8298219153672910e+15  -4.8298219153672900e+15  -4.8298219153672870e+15  -4.8298219153672850e+15  -4.8298219153672840e+15  -4.8298219153672840e+15  -4.8298219153673610e+15  -4.8298219153673600e+15  -4.8298219153673630e+15  -4.8298219153673620e+15  -4.8298219153673610e+15  -4.8298219153673600e+15  -4.8298219153673630e+15  -4.8298219153673580e+15  -4.8298219153673620e+15  -4.8298219153673570e+15  -4.8298219153673610e+15  -4.8298219153673580e+15  -4.8298219153673570e+15  -4.8298219153673580e+15  -4.8298219153673560e+15  -4.8298219153673570e+15  -4.8298219153673600e+15  -4.8298219153673620e+15  -4.8298219153673620e+15  -4.8298219153673650e+15  -4.8298219153673650e+15  -4.8298219153673660e+15  -4.8298219153673680e+15  -4.8298219153673680e+15  -4.8298219153673640e+15  -4.8298219153673450e+15  -4.8298219153673440e+15  -4.8298219153673430e+15  -4.8298219153673460e+15  -4.8298219153673550e+15  -4.8298219153673520e+15  -4.8298219153673530e+15  -4.8298219153673520e+15  -4.8298219153673480e+15  -4.8298219153673480e+15  -4.8298219153673450e+15  -4.8298219153673500e+15  -4.8298219153673460e+15  -4.8298219153673460e+15  -4.8298219153673460e+15  -4.8298219153673440e+15  -4.8298219153673450e+15  -4.8298219153673440e+15  -4.8298219153673520e+15  -4.8298219153673520e+15  -4.8298219153673550e+15  -4.8298219153673480e+15  -4.8298219153673460e+15  -4.8298219153673470e+15  -4.8298219153673540e+15  -4.8298219153673450e+15  -4.8298219153673430e+15  -4.8298219153673550e+15  -4.8298219153673460e+15  -4.8298219153673450e+15  -4.8298219153673510e+15  -4.8298219153673490e+15  -4.8298219153673460e+15  -4.8298219153673460e+15  -4.8298219153673560e+15  -4.8298219153673450e+15  -4.8298219153673460e+15  -4.8298219153673480e+15  -4.8298219153673480e+15  -4.8298219153673560e+15  -4.8298219153673490e+15  -4.8298219153673440e+15  -4.8298219153673490e+15  -4.8298219153673480e+15  -4.8298219153673570e+15  -4.8298219153673490e+15  -4.8298219153673460e+15  -4.8298219153673450e+15  -4.8298219153673500e+15  -4.8298219153673450e+15  -4.8298219153673460e+15  -4.8298219153673560e+15  -4.8298219153673500e+15  -4.8298219153673440e+15  -4.8298219153673440e+15  -4.8298219153673490e+15  -4.8298219153673460e+15  -4.8298219153673460e+15  -4.8298219153673460e+15  -4.8298219153673560e+15  -4.8298219153673500e+15  -4.8298219153673490e+15  -4.8298219153673470e+15  -4.8298219153673510e+15  -4.8298219153673470e+15  -4.8298219153673540e+15  -4.8298219153673470e+15  -4.8298219153673510e+15  -4.8298219153673520e+15  -4.8298219153673490e+15  -4.8298219153673480e+15  -4.8298219153673530e+15  -4.8298219153673470e+15  -4.8298219153673490e+15  -4.8298219153673500e+15  -4.8298219153673520e+15  -4.8298219153673490e+15  -4.8298219153673550e+15  -4.8298219153673510e+15  -4.8298219153673500e+15  -4.8298219153673540e+15  -4.8298219153673510e+15  -4.8298219153673540e+15  -4.8298219153673540e+15  -4.8298219153673480e+15  -4.8298219153673460e+15  -4.8298219153673480e+15  -4.8298219153673480e+15  -4.8298219153673570e+15  -4.8298219153673510e+15  -4.8298219153673490e+15  -4.8298219153673540e+15  -4.8298219153673490e+15  -4.8298219153673490e+15  -4.8298219153673490e+15  -4.8298219153673500e+15  -4.8298219153673540e+15  -4.8298219153673490e+15  -4.8298219153673510e+15  -4.8298219153673500e+15  -4.8298219153673490e+15  -4.8298219153673410e+15  -4.8298219153673460e+15  -4.8298219153673450e+15  -4.8298219153673550e+15  -4.8298219153673410e+15  -4.8298219153673400e+15  -4.8298219153673400e+15  -4.8298219153673500e+15  -4.8298219153673420e+15  -4.8298219153673430e+15  -4.8298219153673430e+15  -4.8298219153673510e+15  -4.8298219153673460e+15  -4.8298219153673520e+15  -4.8298219153673490e+15  -4.8298219153673510e+15  -4.8298219153673500e+15  -4.8298219153673540e+15  -4.8298219153673490e+15  -4.8298219153673490e+15  -4.8298219153673520e+15  -4.8298219153673470e+15  -4.8298219153673460e+15  -4.8298219153673520e+15  -4.8298219153673460e+15  -4.8298219153673460e+15  -4.8298219153673490e+15  -4.8298219153673500e+15  -4.8298219153673490e+15  -4.8298219153673500e+15  -4.8298219153673540e+15  -4.8298219153673500e+15  -4.8298219153673510e+15  -4.8298219153673490e+15  -4.8298219153673540e+15  -4.8298219153673510e+15  -4.8298219153673510e+15  -4.8298219153673530e+15  -4.8298219153673480e+15  -4.8298219153673530e+15  -4.8298219153673550e+15  -4.8298219153673490e+15  -4.8298219153673520e+15  -4.8298219153673510e+15  -4.8298219153673470e+15  -4.8298219153673510e+15  -4.8298219153673520e+15  -4.8298219153673460e+15  -4.8298219153673510e+15  -4.8298219153673520e+15  -4.8298219153673460e+15  -4.8298219153673550e+15  -4.8298219153673530e+15  -4.8298219153673470e+15  -4.8298219153673530e+15  -4.8298219153673240e+15  -4.8298219153673510e+15  -4.8298219153673510e+15  -4.8298219153673490e+15  -4.8298219153673480e+15  -4.8298219153673500e+15  -4.8298219153673470e+15  -4.8298219153673510e+15  -4.8298219153673490e+15  -4.8298219153673520e+15  -4.8298219153673530e+15  -4.8298219153673520e+15  -4.8298219153673510e+15  -4.8298219153673480e+15  -4.8298219153673500e+15  -4.8298219153673490e+15  -4.8298219153673500e+15  -4.8298219153673520e+15  -4.8298219153673490e+15  -4.8298219153673490e+15  -4.8298219153673520e+15  -4.8298219153673530e+15  -4.8298219153673490e+15  -4.8298219153673520e+15  -4.8298219153673530e+15  -4.8298219153673490e+15  -4.8298219153673490e+15  -4.8298219153673540e+15  -4.8298219153673510e+15  -4.8298219153673490e+15  </DataArray> 
</PointData> 
</Piece>
</UnstructuredGrid>
</VTKFile>