<?xml version="1.0"?>
<VTKFile type="UnstructuredGrid"  version="0.1"  >
<UnstructuredGrid>
<Piece  NumberOfPoints="311" NumberOfCells="923">
<Points>
<DataArray  type="Float64"  NumberOfComponents="3"  format="ascii">0.4924039 -0.8528685 -0.1736482  0.1710101 -0.9698463000000001 -0.1736482  0.2961981 -0.8137977 -0.5  0.5566704 -0.6634139 -0.5  -0.06162842 -0.06162842 0.9961947  -0.1736482 2.126577e-17 0.9848078  -0.1227878 -0.1227878 0.9848078  -0.04995021 -0.1205905 0.9914449  -0.1484525 -0.2120121 0.9659257999999999  -0.8660253999999999 1.060575e-16 0.5  -0.9698463000000001 0.1710101 0.1736482  -0.9698463000000001 -0.1710101 0.1736482  -0.8137977 0.2961981 0.5  -0.1093817 -0.2345697 0.9659257999999999  -3.189865e-17 -0.1736482 0.9848078  -0.01669242 -0.04029906 0.9990482000000001  0.1710101 0.2961981 0.9396926  0.2620026 0.2198463 0.9396926  0.4131759 0.4924039 0.7660444  0.2198463 0.6040228 0.7660444  -6.232401e-17 -0.05814483 0.9983082  6.123234e-17 -1.49976e-32 1  0.06162842 -0.06162842 0.9961947  0.03015369 -0.1710101 0.9848078  0.05939117 -0.1631759 0.9848078  -0.06809364 0.02534635 -0.9973569  -0.001691126 0.05812023 -0.9983082  6.123234e-17 -1.49976e-32 -1  -0.1235992 0.04195627 -0.9914449  -0.06425794999999999 0.05888157 -0.9961947  -0.1729874 -0.01513444 -0.9848078  -0.05888157 -0.06425794999999999 -0.9961947  -0.4131759 0.4924039 0.7660444  -0.2198463 0.6040228 0.7660444  -0.4330127 0.75 0.5  0.1316255 0.9874607 -0.08715574  0.4642701 0.881395 -0.08715574  0.1710101 0.9698463000000001 -0.1736482  -0.6634139 0.5566704 0.5  0.4255453 0.9049371 1.480297e-16  -0.1710101 0.9698463000000001 -0.1736482  0.08822896 0.9961002 2.220446e-16  0.3368241 0.9254166 0.1736482  6.030208e-17 0.9848078 0.1736482  -0.8137977 -0.2961981 0.5  -0.8528685 -0.4924039 0.1736482  0.1316255 -0.9874607 -0.08715574  0.4642701 -0.881395 -0.08715574  0.4255453 -0.9049371 1.480297e-16  -0.1710101 -0.9698463000000001 -0.1736482  0.08822896 -0.9961002 2.220446e-16  0.3368241 -0.9254166 0.1736482  -1.055591e-15 -0.9848078 0.1736482  0.05939117 0.3368241 0.9396926  3.935939e-17 0.6427876 0.7660444  -0.04029906 0.01669242 0.9990482000000001  0.01669242 0.04029906 0.9990482000000001  -0.06162842 0.06162842 0.9961947  -0.1830127 0.1830127 0.9659257999999999  -0.2150921 0.9726969 -0.08715574  -0.5566704 0.3213938 0.7660444  -0.4924039 0.8528685 -0.1736482  -0.2584721 0.9660187 2.220446e-16  -0.3368241 0.9254166 0.1736482  -0.2150921 -0.9726969 -0.08715574  -0.6634139 -0.5566704 0.5  -0.4924039 -0.8528685 -0.1736482  -0.2584721 -0.9660187 2.220446e-16  -0.3368241 -0.9254166 0.1736482  -0.6330222 -0.7544065 0.1736482  -0.05939117 0.3368241 0.9396926  -0.5351041 0.8402782 -0.08715574  -0.7544065 0.6330222 -0.1736482  -0.5734784000000001 0.8192207 2.220446e-16  -0.6330222 0.7544065 0.1736482  -0.6330222 0.1116189 0.7660444  -0.5351041 -0.8402782 -0.08715574  -0.7544065 -0.6330222 -0.1736482  -0.5734784000000001 -0.8192207 2.220446e-16  -0.7902981 0.6064922 -0.08715574  -0.9254166 0.3368241 -0.1736482  -0.4330127 -0.75 0.5  -0.1710101 0.2961981 0.9396926  -0.8191292 0.5736091 2.220446e-16  -0.8528685 0.4924039 0.1736482  -0.7902981 -0.6064922 -0.08715574  -0.9254166 -0.3368241 -0.1736482  -0.6330222 -0.1116189 0.7660444  -0.8191292 -0.5736091 2.220446e-16  -0.9500818 0.2995805 -0.08715574  -0.9848078 1.206042e-16 -0.1736482  -0.1503837 -0.8528685 0.5  -0.9659224 0.2588319 2.220446e-16  -0.2620026 0.2198463 0.9396926  -0.9500818 -0.2995805 -0.08715574  -0.9659224 -0.2588319 2.220446e-16  -0.5566704 -0.3213938 0.7660444  -0.9961947 1.219987e-16 -0.08715574  0.1503837 -0.8528685 0.5  -0.9988104 0.02179744 -0.04361939  0.3368241 0.05939117 -0.9396926  0.5 -1.224647e-16 -0.8660253999999999  0.258819 -6.339238e-17 -0.9659257999999999  -0.3213938 0.1169778 0.9396926  0.9698463000000001 -0.1710101 0.1736482  1 -2.449294e-16 -2.021286e-15  0.9659257999999999 -2.365836e-16 0.258819  0.2961981 0.1710101 -0.9396926  0.8528685 -0.4924039 0.1736482  -0.4131759 -0.4924039 0.7660444  0.4330127 -0.75 0.5  0.6330222 -0.7544065 0.1736482  -0.3420201 4.188539e-17 0.9396926  -0.2198463 -0.6040228 0.7660444  0.6634139 -0.5566704 0.5  -0.3213938 -0.1169778 0.9396926  -6.889883e-16 -0.6427876 0.7660444  0.8137977 -0.2961981 0.5  0.8660253999999999 -2.12115e-16 0.5  0.7071068 -1.731912e-16 0.7071068  -0.2620026 -0.2198463 0.9396926  0.3213938 0.5566704 -0.7660444  0.4924039 0.4131759 -0.7660444  0.2198463 0.2620026 -0.9396926  0.1169778 0.3213938 -0.9396926  0.2198463 -0.6040228 0.7660444  0.8528685 0.1503837 -0.5  0.8660253999999999 -2.12115e-16 -0.5  0.7071068 -1.731912e-16 -0.7071068  -0.1710101 -0.2961981 0.9396926  0.4131759 -0.4924039 0.7660444  0.1116189 0.6330222 -0.7660444  2.094269e-17 0.3420201 -0.9396926  -0.05939117 -0.3368241 0.9396926  0.5566704 -0.3213938 0.7660444  0.05939117 -0.3368241 0.9396926  0.75 0.4330127 -0.5  0.6040228 0.2198463 -0.7660444  0.6330222 -0.1116189 0.7660444  0.5 -1.224647e-16 0.8660253999999999  -0.1116189 0.6330222 -0.7660444  -0.1169778 0.3213938 -0.9396926  0.1710101 -0.2961981 0.9396926  0.2620026 -0.2198463 0.9396926  0.3213938 -0.1169778 0.9396926  0.258819 -6.339238e-17 0.9659257999999999  0.1677313 0.04494346 -0.9848078  0.5566704 0.6634139 -0.5  0.1573787 0.07338689 -0.9848078  0.1422443 0.09960049999999999 -0.9848078  -0.3213938 0.5566704 -0.7660444  -0.2198463 0.2620026 -0.9396926  0.1227878 0.1227878 -0.9848078  0.2961981 0.8137977 -0.5  0.09960049999999999 0.1422443 -0.9848078  -0.4924039 0.4131759 -0.7660444  -0.2961981 0.1710101 -0.9396926  0.07338689 0.1573787 -0.9848078  0.04494346 0.1677313 -0.9848078  5.302876e-17 0.8660253999999999 -0.5  0.01513444 0.1729874 -0.9848078  -0.01513444 0.1729874 -0.9848078  -0.6040228 0.2198463 -0.7660444  -0.3368241 0.05939117 -0.9396926  0.5389855 0.1961747 -0.819152  0.8923991 0.2391176 -0.3826834  0.9659257999999999 -2.365836e-16 -0.258819  0.7544065 0.6330222 -0.1736482  0.9254166 0.3368241 -0.1736482  0.9361168 0.3407187 -0.08715574  0.9182161 0.3960798 -4.440892e-16  0.9698463000000001 0.1710101 0.1736482  -0.2961981 0.8137977 -0.5  0.8528685 0.4924039 0.1736482  -0.6427876 7.871878e-17 -0.7660444  -0.3368241 -0.05939117 -0.9396926  0.04494346 -0.1677313 -0.9848078  -3.66603e-16 -0.3420201 -0.9396926  0.01513444 -0.1729874 -0.9848078  0.1169778 -0.3213938 -0.9396926  0.4924039 0.8528685 -0.1736482  0.07338689 -0.1573787 -0.9848078  0.09960049999999999 -0.1422443 -0.9848078  -0.5566704 0.6634139 -0.5  0.2198463 -0.2620026 -0.9396926  0.1227878 -0.1227878 -0.9848078  0.1422443 -0.09960049999999999 -0.9848078  0.2961981 -0.1710101 -0.9396926  0.1573787 -0.07338689 -0.9848078  -0.6040228 -0.2198463 -0.7660444  -0.2961981 -0.1710101 -0.9396926  0.1677313 -0.04494346 -0.9848078  0.3368241 -0.05939117 -0.9396926  0.5389855 -0.1961747 -0.819152  0.6040228 -0.2198463 -0.7660444  0.4924039 -0.4131759 -0.7660444  0.1631759 0.05939117 0.9848078  0.3213938 0.1169778 0.9396926  0.1503837 0.08682409000000001 0.9848078  -0.75 0.4330127 -0.5  0.8923991 -0.2391176 -0.3826834  0.9254166 -0.3368241 -0.1736482  0.8528685 -0.1503837 -0.5  0.7544065 -0.6330222 -0.1736482  0.1330222 0.1116189 0.9848078  -0.4924039 -0.4131759 -0.7660444  -0.2198463 -0.2620026 -0.9396926  0.1116189 0.1330222 0.9848078  0.08682409000000001 0.1503837 0.9848078  0.05939117 0.1631759 0.9848078  -0.8528685 0.1503837 -0.5  0.03015369 0.1710101 0.9848078  0.9361168 -0.3407187 -0.08715574  -0.3213938 -0.5566704 -0.7660444  -0.1169778 -0.3213938 -0.9396926  1.063288e-17 0.1736482 0.9848078  0.9182161 -0.3960798 -4.440892e-16  -0.8528685 -0.1503837 -0.5  -0.1116189 -0.6330222 -0.7660444  0.08682409000000001 -0.1503837 0.9848078  0.1116189 -0.1330222 0.9848078  0.1330222 -0.1116189 0.9848078  0.1503837 -0.08682409000000001 0.9848078  0.8137977 0.2961981 0.5  0.1631759 -0.05939117 0.9848078  0.07730809 0.04024404 -0.9961947  -0.75 -0.4330127 -0.5  0.07350640999999999 0.04682875 -0.9961947  0.06914530000000001 0.05305705 -0.9961947  0.1116189 -0.6330222 -0.7660444  0.06425794999999999 0.05888157 -0.9961947  0.05888157 0.06425794999999999 -0.9961947  0.6634139 0.5566704 0.5  0.6330222 0.7544065 0.1736482  -0.1390634 0.2182858 -0.9659257999999999  -0.1748556 0.1908214 -0.9659257999999999  -0.5566704 -0.6634139 -0.5  -0.205335 0.1575591 -0.9659257999999999  0.3213938 -0.5566704 -0.7660444  0.7564148000000001 0.4818894 -0.4422887  0.4330127 0.75 0.5  -0.2961981 -0.8137977 -0.5  -0.1575591 -0.205335 -0.9659257999999999  -0.0521024 -0.1037444 -0.9932384  -0.1195093 -0.2295753 -0.9659257999999999  0.7441824 0.6622661 -0.08715574  0.6330222 0.1116189 0.7660444  0.7139297 0.7002173 0  0.06425794999999999 -0.05888157 -0.9961947  0.06914530000000001 -0.05305705 -0.9961947  0.1503837 0.8528685 0.5  0.07350640999999999 -0.04682875 -0.9961947  0.07730809 -0.04024404 -0.9961947  -9.282713999999999e-16 -0.8660253999999999 -0.5  0.7564148000000001 -0.4818894 -0.4422887  0.75 -0.4330127 -0.5  0.07547909 0.04357787 0.9961947  0.07139379999999999 0.04999048 0.9961947  0.5566704 0.3213938 0.7660444  0.06676517 0.05602263 0.9961947  0.06162842 0.06162842 0.9961947  -0.1503837 0.8528685 0.5  0.7441824 -0.6622661 -0.08715574  0.7139297 -0.7002173 0  -0.1093817 0.2345697 0.9659257999999999  -0.1484525 0.2120121 0.9659257999999999  -0.05804646 0.1005394 0.9932384  -0.1830127 -0.1830127 0.9659257999999999  0.06676517 -0.05602263 0.9961947  0.07139379999999999 -0.04999048 0.9961947  0.07547909 -0.04357787 0.9961947  -0.1330222 0.1116189 -0.9848078  1.072210472699564e-06 -6.648040019596735e-07 -4.279460168010729e-06  0.0220956049988643 0.02024696823309768 0.4992883117679702  0.05037575631796259 0.04227028685248643 -0.4961642211086729  -0.1168267439683509 0.10705172901044 -0.7078751660862197  0.03316006316865275 0.0303856561796067 0.7493125688054152  0.4626432996072185 -0.168388405263096 0.2626395080614912  0.4605847991801275 0.04029585108441306 -0.2022463886582085  0.1129866173502542 -0.06913803522254058 -0.7634664772477699  -0.396375026843811 0.14426876
[...]
<PointData  Scalars="f_1384"> 
<DataArray  type="Float64"  Name="f_1384"  format="ascii">1.4367725248891658e-01  1.4159001839668675e-01  2.1481074434911954e-01  1.0515616740745362e-01  0.0000000000000000e+00  0.0000000000000000e+00  0.0000000000000000e+00  0.0000000000000000e+00  0.0000000000000000e+00  0.0000000000000000e+00  0.0000000000000000e+00  0.0000000000000000e+00  0.0000000000000000e+00  0.0000000000000000e+00  0.0000000000000000e+00  0.0000000000000000e+00  2.2836554553884603e-01  2.6334175829380008e-01  3.7586289040407062e-01  2.7365666270101241e-01  0.0000000000000000e+00  0.0000000000000000e+00  7.6842126125571467e-02  3.2123485405304110e-02  7.6285997882260342e-02  0.0000000000000000e+00  0.0000000000000000e+00  0.0000000000000000e+00  0.0000000000000000e+00  0.0000000000000000e+00  0.0000000000000000e+00  0.0000000000000000e+00  0.0000000000000000e+00  0.0000000000000000e+00  0.0000000000000000e+00  2.0898395672720413e-01  3.8354124139316137e-01  2.5293974212894910e-01  0.0000000000000000e+00  3.8625685280704736e-01  0.0000000000000000e+00  1.5112565917156801e-01  3.5514440974136086e-01  0.0000000000000000e+00  0.0000000000000000e+00  0.0000000000000000e+00  1.2644911943422218e-01  1.5547071781945970e-01  1.7380840830559946e-01  0.0000000000000000e+00  9.9926755316051177e-02  2.2433888512452541e-01  0.0000000000000000e+00  1.2589575407622680e-01  0.0000000000000000e+00  0.0000000000000000e+00  3.8222806546895534e-02  0.0000000000000000e+00  0.0000000000000000e+00  0.0000000000000000e+00  0.0000000000000000e+00  0.0000000000000000e+00  0.0000000000000000e+00  0.0000000000000000e+00  0.0000000000000000e+00  0.0000000000000000e+00  0.0000000000000000e+00  0.0000000000000000e+00  0.0000000000000000e+00  0.0000000000000000e+00  0.0000000000000000e+00  0.0000000000000000e+00  0.0000000000000000e+00  0.0000000000000000e+00  0.0000000000000000e+00  0.0000000000000000e+00  0.0000000000000000e+00  0.0000000000000000e+00  0.0000000000000000e+00  0.0000000000000000e+00  0.0000000000000000e+00  0.0000000000000000e+00  0.0000000000000000e+00  0.0000000000000000e+00  0.0000000000000000e+00  0.0000000000000000e+00  0.0000000000000000e+00  0.0000000000000000e+00  0.0000000000000000e+00  0.0000000000000000e+00  0.0000000000000000e+00  0.0000000000000000e+00  0.0000000000000000e+00  0.0000000000000000e+00  0.0000000000000000e+00  0.0000000000000000e+00  0.0000000000000000e+00  0.0000000000000000e+00  1.6499039948126179e-01  0.0000000000000000e+00  2.6420310317616497e-01  2.0394423521832833e-01  2.4455487627147926e-01  0.0000000000000000e+00  -3.6783435288073663e-01  -3.8234139598109390e-01  -3.7169456077141233e-01  2.7548103078007435e-01  -2.5171546581632320e-01  0.0000000000000000e+00  1.9696064110172593e-01  2.3536966082909266e-02  0.0000000000000000e+00  0.0000000000000000e+00  2.7186554778387072e-02  0.0000000000000000e+00  0.0000000000000000e+00  -2.2325874006331761e-01  -2.2494146217333236e-01  2.6869823164937592e-03  0.0000000000000000e+00  3.2477965435689932e-01  3.0984358790179295e-01  2.5895474842509880e-01  1.6112497467825698e-01  2.1681325823657507e-01  -1.5501578609192532e-01  -2.1720503001894179e-01  -3.2415638217513566e-02  0.0000000000000000e+00  2.4480256398937872e-01  1.8574433810401492e-01  0.0000000000000000e+00  0.0000000000000000e+00  1.4589257821579879e-01  1.0446255906368915e-01  1.4397701700381180e-01  1.4287251689544728e-01  8.6035362988516217e-02  2.0107726876941615e-01  0.0000000000000000e+00  0.0000000000000000e+00  1.8615012751697577e-01  2.3658997559868242e-01  2.4713213501662115e-01  2.5819512151534291e-01  1.8132506764321329e-01  3.6274988779449696e-01  1.8589512151535537e-01  1.7884235941249896e-01  0.0000000000000000e+00  0.0000000000000000e+00  1.6677577298685625e-01  3.4265191165631409e-01  1.4196705961318681e-01  0.0000000000000000e+00  0.0000000000000000e+00  1.1269428312918008e-01  7.5493381635338572e-02  0.0000000000000000e+00  3.6694519072343820e-02  0.0000000000000000e+00  0.0000000000000000e+00  0.0000000000000000e+00  2.1351163299848783e-01  -1.8470919662035418e-01  -3.5247109607444138e-01  1.7561574986622483e-01  -1.8299269255843406e-01  -2.0641054891437238e-01  -1.7456777850954888e-01  -3.0404908077519166e-01  0.0000000000000000e+00  -7.1347935079734373e-02  0.0000000000000000e+00  0.0000000000000000e+00  7.3081407270594326e-02  0.0000000000000000e+00  4.4884230879113779e-02  1.1353909396985931e-01  3.7175383210081475e-01  1.0101477373125001e-01  1.2755298922448494e-01  0.0000000000000000e+00  2.0623843309241457e-01  1.4870476880819605e-01  1.6614824543686474e-01  2.3063189522884153e-01  1.7615301727242386e-01  0.0000000000000000e+00  0.0000000000000000e+00  1.8327240742529052e-01  2.3559292610795668e-01  1.5867630971035951e-01  8.5804658374145401e-02  1.8168706831438503e-01  1.9233641355640932e-01  2.4851198142561010e-01  1.8694652143577270e-01  0.0000000000000000e+00  -2.7952046867102720e-01  -3.4723490891053105e-01  -2.0860753994408740e-01  -8.7745940471049194e-02  1.7030389631881118e-01  0.0000000000000000e+00  0.0000000000000000e+00  1.4935080699932918e-01  1.1900210283352651e-01  1.0348819082390207e-01  0.0000000000000000e+00  5.6273806495895293e-02  -3.6988507509080037e-01  0.0000000000000000e+00  0.0000000000000000e+00  0.0000000000000000e+00  -3.5022467670674534e-01  0.0000000000000000e+00  0.0000000000000000e+00  1.1138072908041174e-01  1.4274675455485997e-01  1.6393395752171852e-01  1.8093029399498167e-01  -1.0243437728249322e-01  1.8894520708563226e-01  8.9506849578405240e-02  0.0000000000000000e+00  8.7790256023626140e-02  8.4896137106279412e-02  8.7721604720140622e-02  8.1108459002813063e-02  7.6214073746140004e-02  2.6222313638168654e-01  3.0593039342112266e-01  0.0000000000000000e+00  0.0000000000000000e+00  0.0000000000000000e+00  0.0000000000000000e+00  1.9747633743904697e-01  1.4762576943181882e-01  4.2401112356071341e-01  0.0000000000000000e+00  0.0000000000000000e+00  0.0000000000000000e+00  0.0000000000000000e+00  1.7748249711813210e-01  1.2082791259833012e-01  2.0842564208834519e-01  8.3115585681481960e-02  8.6538967130569022e-02  2.5082852637794251e-01  8.9218650516466727e-02  9.1247690670801712e-02  0.0000000000000000e+00  -1.0306919253138361e-01  -9.5668030695923778e-02  9.6030407041807292e-02  9.4633240663310372e-02  2.6085499391076233e-01  9.1166340376102314e-02  8.6896876134096010e-02  0.0000000000000000e+00  -9.0120689277291610e-02  -6.1008256256686669e-02  0.0000000000000000e+00  0.0000000000000000e+00  0.0000000000000000e+00  0.0000000000000000e+00  8.2331336203928449e-02  8.7063858094314175e-02  9.0772276095122340e-02  0.0000000000000000e+00  3.9540503675050298e-02  3.8112550585516825e-02  5.4743305080555429e-02  0.0000000000000000e+00  5.6526508955040050e-02  -2.4786030381659177e-02  6.6830294794376294e-03  1.0107202400010226e-01  0.0000000000000000e+00  1.5411262070162357e-01  5.4393619292990650e-02  0.0000000000000000e+00  0.0000000000000000e+00  0.0000000000000000e+00  5.7830018270514025e-02  0.0000000000000000e+00  0.0000000000000000e+00  1.6169546955105848e-01  1.2955725953356606e-01  0.0000000000000000e+00  0.0000000000000000e+00  5.2816990300445177e-02  1.6715531739483688e-01  -1.3677409690637496e-01  -7.8068216304153712e-03  3.3733936833867793e-02  0.0000000000000000e+00  0.0000000000000000e+00  0.0000000000000000e+00  0.0000000000000000e+00  7.8238271269887055e-02  1.0342626614467822e-01  9.5473107390389958e-02  0.0000000000000000e+00  0.0000000000000000e+00  1.5163494769520325e-01  -7.3101564036866781e-02  1.2080048874820784e-01  2.2111616435400139e-01  </DataArray> 
</PointData> 
</Piece>
</UnstructuredGrid>
</VTKFile>