<?xml version="1.0"?>
<VTKFile type="UnstructuredGrid"  version="0.1"  >
<UnstructuredGrid>
<Piece  NumberOfPoints="799" NumberOfCells="2904">
<Points>
<DataArray  type="Float64"  NumberOfComponents="3"  format="ascii">23.91413 -13.14691 -6.845471  19.89333 -18.68108 -6.845471  18.48538 -17.35893 -8.443279  8.435096 13.29159 -9.048271  9.932752000000001 9.327475 -7.705132  7.301047 11.50461 -7.705132  -23.26981 16.90651 -4.817537  -18.33427 22.16232 -4.817537  -17.3951 21.02706 -6.845471  11.47558 10.77628 -9.048271  22.22162 -12.21644 -8.443279  15.90646 -25.06458 2.486899  9.27051 -28.5317 -2.449294e-15  16.0748 -25.32984 -2.449294e-15  15.0371 14.12077 -9.980267  18.07637 9.937569 -9.980267  15.8841 8.732357 -9.822873  22.36475 -5.742292 -9.510565  20.62791 -5.05238e-15 -9.980267  23.09017 -5.655461e-15 -9.510565  13.21342 12.40823 -9.822873  9.173425999999999 -28.2329 2.486899  20.23407 -11.12377 -9.510565  18.07637 -9.937569 -9.980267  19.97984 -5.129951 -9.980267  -12.66891 -5.015977 -7.705132  -11.81592 -1.492698 -5.877853  -11.07348 -4.384301 -5.877853  25.20527 -13.85671 -4.817537  20.96737 -19.68967 -4.817537  -13.51832 -1.707761 -7.705132  22.22162 12.21644 -8.443279  22.36475 5.742292 -9.510565  20.23407 11.12377 -9.510565  24.56159 6.306345 -8.443279  -8.658289999999999 -6.290616 -3.681246  -9.371081 -3.710273 -1.253332  -8.153962999999999 -5.924201 -1.253332  27.85942 7.153084 -4.817537  27.28969 -6.684045e-15 -6.845471  26.43233 6.786669 -6.845471  24.56159 -6.306345 -8.443279  28.76307 -7.04492e-15 -4.817537  25.35827 -6.210984e-15 -8.443279  -9.950687 -3.939756 -3.681246  -6.424503 -7.76589 1.253332  -8.153962999999999 -5.924201 1.253332  -8.658289999999999 -6.290616 3.681246  -5.070959 10.77634 5.877853  -2.23168 11.69887 5.877853  -2.553213 13.38441 7.705132  26.01389 -14.30126 -2.486899  26.2892 -14.45261 -2.449294e-15  21.86906 -20.53641 -2.449294e-15  -6.821861 -8.246214 3.681246  -5.801566 12.32896 7.705132  21.64004 -20.32135 -2.486899  -17.98326 -2.271814 -9.822873  -17.98326 2.271814 -9.822873  -15.61808 1.973022 -9.048271  26.43233 -6.786669 -6.845471  -23.57752 9.335001 8.443279  -20.51527 14.90522 8.443279  -22.07782 16.04048 6.845471  -15.61808 -1.973022 -9.048271  -5.070959 -10.77634 5.877853  -7.591611 -9.176682 5.877853  -8.685385999999999 -10.49883 7.705132  -25.37331 10.046 6.845471  27.85942 -7.153084 -4.817537  -28.53626 3.604968 4.817537  -26.74322 10.58839 4.817537  -27.60119 10.92808 2.486899  -29.45175 3.720621 2.486899  -5.801566 -12.32896 7.705132  28.7532 -7.382566 -2.486899  -25.37331 10.046 -6.845471  -22.07782 16.04048 -6.845471  -20.51527 14.90522 -8.443279  29.05749 -7.460697 -2.449294e-15  30 -7.347881e-15 -2.449294e-15  -1.888589 9.900328999999999 1.253332  0.6719989 10.68112 3.681246  -2.005399 10.51267 3.681246  29.68583 -7.270932e-15 -2.486899  -23.57752 9.335001 -8.443279  0.6328564 10.05896 1.253332  -22.9081 2.893966 -9.510565  -19.17934 7.593638 -9.980267  -20.46525 2.585362 -9.980267  -21.4687 8.500057999999999 -9.510565  -16.68833 12.12478 9.980267  -13.14872 15.89407 9.980267  -14.71823 17.79128 9.510565  -18.68034 13.57206 9.510565  0.6719989 10.68112 -3.681246  3.307173 10.17843 -3.681246  3.114537 9.585559 -1.253332  0.6328564 10.05896 -1.253332  -2.949795 -15.46337 9.048271  -7.717755 -16.40106 9.822873  -3.396509 -17.80512 9.822873  -6.702706 -14.24397 9.048271  4.210591 12.95887 -7.705132  6.381606 10.0558 -5.877853  3.68034 11.32692 -5.877853  1.295237 -20.5872 9.980267  -4.326666 -22.68118 9.510565  1.449844 -23.04461 9.510565  -10.03446 12.12958 9.048271  -7.717755 16.40106 9.822873  -11.55407 13.96647 9.822873  -3.865284 -20.26253 9.980267  -6.702706 14.24397 9.048271  7.836136 -24.11715 8.443279  1.592259 -25.30823 8.443279  1.713534 -27.23584 6.845471  9.712497000000001 15.30445 -9.822873  8.432976999999999 -25.95403 6.845471  -24.01634 17.44889 -2.486899  -24.27051 17.63356 -2.449294e-15  -19.12272 23.1154 -2.449294e-15  23.91413 13.14691 -6.845471  -18.92246 22.87333 -2.486899  15.41202 -24.28546 4.817537  8.888275999999999 -27.3553 4.817537  16.83201 15.80631 -9.510565  28.7532 7.382566 -2.486899  29.05749 7.460697 -2.449294e-15  -6.424503 -7.76589 -1.253332  -29.45175 -3.720621 2.486899  -29.76344 3.759997 -2.449294e-15  -29.76344 -3.759997 -2.449294e-15  -20.46525 -2.585362 -9.980267  -4.55679 9.683672 3.681246  -14.63673 -5.795093 -9.048271  -21.4687 8.500057999999999 9.510565  -9.635255000000001 -7.000422 -5.877853  -27.0745 3.420305 6.845471  -4.55679 -9.683672 3.681246  0.7478243999999999 11.88633 -5.877853  -26.74322 10.58839 -4.817537  -1.888589 9.900328999999999 -1.253332  -25.15831 3.178234 -8.443279  -8.685385999999999 10.49883 7.705132  -14.66439 10.65431 9.822873  -2.553213 -13.38441 7.705132  4.86461 14.97173 -9.048271  1.138153 -18.09042 9.822873  11.05298 17.41672 -9.980267  7.135255 -21.96006 9.510565  18.48538 17.35893 -8.443279  14.62255 -23.04144 6.845471  25.20527 13.85671 -4.817537  -28.53626 -3.604968 4.817537  21.64004 -20.32135 2.486899  -11.02347 -8.009021000000001 -7.705132  -2.005399 10.51267 -3.681246  -6.821861 -8.246214 -3.681246  -7.591611 9.176682 5.877853  0.8555686 13.59887 -7.705132  -16.8533 -6.672694 -9.822873  -4.291367 -9.119619 1.253332  -12.73571 9.253037000000001 9.048271  -27.60119 10.92808 -2.486899  -27.89329 11.04374 -2.449294e-15  -4.291367 9.119619 1.253332  -25.15831 3.178234 8.443279  -27.0745 3.420305 -6.845471  -19.17934 7.593638 9.980267  -22.9081 -2.893966 -9.510565  -2.23168 -11.69887 5.877853  5.6013 17.23903 -9.822873  12.37233 19.49568 -9.510565  0.9884614 -15.71114 9.048271  19.89333 18.68108 -6.845471  26.01389 14.30126 -2.486899  26.2892 14.45261 -2.449294e-15  6.374373 -19.6183 9.980267  -27.60119 -10.92808 2.486899  -27.89329 -11.04374 -2.449294e-15  -22.9081 2.893966 9.510565  20.96737 -19.68967 4.817537  13.58764 -21.41069 8.443279  -27.0745 -3.420305 6.845471  -19.17934 -7.593638 -9.980267  -2.23168 11.69887 -5.877853  -12.73571 -9.253037000000001 -9.048271  -7.591611 -9.176682 -5.877853  -4.291367 9.119619 -1.253332  -6.821861 8.246214 3.681246  -4.291367 -9.119619 -1.253332  -11.02347 8.009021000000001 7.705132  -25.15831 -3.178234 -8.443279  -16.8533 6.672694 9.822873  -2.005399 -10.51267 3.681246  0.9884614 15.71114 -9.048271  0.8555686 -13.59887 7.705132  6.374373 19.6183 -9.980267  13.58764 21.41069 -8.443279  -28.53626 3.604968 -4.817537  20.96737 19.68967 -4.817537  5.6013 -17.23903 9.822873  -14.63673 5.795093 9.048271  19.89333 -18.68108 6.845471  -20.46525 2.585362 9.980267  -6.424503 7.76589 1.253332  26.01389 -14.30126 2.486899  12.37233 -19.49568 9.510565  -26.74322 -10.58839 4.817537  -4.55679 9.683672 -3.681246  -8.685385999999999 -10.49883 -7.705132  -9.635255000000001 7.000422 5.877853  -4.55679 -9.683672 -3.681246  -2.553213 13.38441 -7.705132  -27.0745 -3.420305 -6.845471  -25.15831 -3.178234 8.443279  -21.4687 -8.500057999999999 -9.510565  -14.66439 -10.65431 -9.822873  1.138153 18.09042 -9.822873  -1.888589 -9.900328999999999 1.253332  7.135255 21.96006 -9.510565  14.62255 23.04144 -6.845471  21.64004 20.32135 -2.486899  21.86906 20.53641 -2.449294e-15  0.7478243999999999 -11.88633 5.877853  -29.45175 3.720621 -2.486899  -17.98326 2.271814 9.822873  -22.9081 -2.893966 9.510565  4.86461 -14.97173 9.048271  -25.37331 -10.046 6.845471  25.20527 -13.85671 4.817537  11.05298 -17.41672 9.980267  -2.949795 15.46337 -9.048271  18.48538 -17.35893 8.443279  -24.01634 -17.44889 2.486899  -24.27051 -17.63356 -2.449294e-15  -5.070959 10.77634 -5.877853  -16.68833 -12.12478 -9.980267  -10.03446 -12.12958 -9.048271  -8.658289999999999 6.290616 3.681246  -12.66891 5.015977 7.705132  -5.070959 -10.77634 -5.877853  -6.424503 7.76589 -1.253332  -23.57752 -9.335001 -8.443279  -1.888589 -9.900328999999999 -1.253332  1.295237 20.5872 -9.980267  28.7532 7.382566 2.486899  15.41202 24.28546 -4.817537  29.68583 -7.270932e-15 2.486899  0.6719989 -10.68112 3.681246  7.836136 24.11715 -8.443279  27.85942 7.153084 4.817537  28.76307 -7.04492e-15 4.817537  -28.53626 -3.604968 -4.817537  -6.821861 8.246214 -3.681246  4.210591 -12.95887 7.705132  26.01389 14.30126 2.486899  -8.153962999999999 5.924201 1.253332  26.43233 6.786669 6.845471  27.28969 -6.684045e-15 6.845471  -20.46525 -2.585362 9.980267  23.91413 -13.14691 6.845471  9.712497000000001 -15.30445 9.822873  24.56159 6.306345 8.443279  -23.57752 -9.335001 8.443279  25.35827 -6.210984e-15 8.443279  25.20527 13.85671 4.817537  -15.61808 1.973022 9.048271  16.83201 -15.80631 9.510565  28.7532 -7.382566 2.486899  22.36475 5.742292 9.510565  23.09017 -5.655461e-15 9.510565  -23.26981 -16.90651 4.817537  -25.37331 -10.046 -6.845471  23.91413 13.14691 6.845471  -5.801566 12.32896 -7.705132  -18.68034 -13.57206 -9.510565  -11.07348 4.384301 5.877853  21.64004 20.32135 2.486899  -11.55407 -13.96647 -9.822873  22.22162 12.21644 8.443279  -3.396509 17.80512 -9.822873  -5.801566 -12.32896 -7.705132  1.449844 23.04461 -9.510565  19.97984 5.129951 9.980267  8.432976999999999 25.95403 -6.845471  -2.005399 -10.51267 -3.681246  20.62791 -5.05238e-15 9.980267  15.90646 25.06458 -2.486899  16.0748 25.32984 -2.449294e-15  20.96737 19.68967 4.817537  0.6328564 -10.05896 1.253332  -13.51832 1.707761 7.705132  20.23407 11.12377 9.510565  -29.45175 -3.720621 -2.486899  -17.98326 -2.271814 9.822873  3.68034 -11.32692 5.877853  17.55672 4.507799 9.822873  18.12619 -4.439635e-15 9.822873  -21.4687 -8.500057999999999 9.510565  15.90646 25.06458 2.486899  8.435096 -13.29159 9.048271  -22.07782 -16.04048 6.845471  19.89333 18.68108 6.845471  -18.92246 -22.87333 2.486899  22.22162 -12.21644 8.443279  15.24764 3.914928 9.048271  15.74221 -3.855729e-15 9.048271  -19.12272 -23.1154 -2.449294e-15  -7.591611 9.176682 -5.877853  15.41202 24.28546 4.817537  15.0371 -14.12077 9.980267  27.85942 -7.153084 4.817537  -6.702706 14.24397 -9.048271  18.07637 9.937569 9.980267  -9.950687 3.939756 3.681246  -13.14872 -15.89407 -9.980267  18.48538 17.35893 8.443279  -
[...]
<PointData  Scalars="f_41"> 
<DataArray  type="Float64"  Name="f_41"  format="ascii">-3.2325630434815772e+16  -3.2325630434815784e+16  -3.2325630434815780e+16  -3.2325630434815900e+16  -3.2325630434815852e+16  -3.2325630434815888e+16  -3.2325630434815860e+16  -3.2325630434815868e+16  -3.2325630434815888e+16  -3.2325630434815856e+16  -3.2325630434815776e+16  -3.2325630434815776e+16  -3.2325630434815772e+16  -3.2325630434815764e+16  -3.2325630434815844e+16  -3.2325630434815860e+16  -3.2325630434815856e+16  -3.2325630434815812e+16  -3.2325630434815800e+16  -3.2325630434815796e+16  -3.2325630434815860e+16  -3.2325630434815768e+16  -3.2325630434815792e+16  -3.2325630434815800e+16  -3.2325630434815788e+16  -3.2325630434815824e+16  -3.2325630434815836e+16  -3.2325630434815832e+16  -3.2325630434815760e+16  -3.2325630434815764e+16  -3.2325630434815824e+16  -3.2325630434815812e+16  -3.2325630434815792e+16  -3.2325630434815820e+16  -3.2325630434815760e+16  -3.2325630434815828e+16  -3.2325630434815836e+16  -3.2325630434815804e+16  -3.2325630434815760e+16  -3.2325630434815776e+16  -3.2325630434815752e+16  -3.2325630434815800e+16  -3.2325630434815776e+16  -3.2325630434815788e+16  -3.2325630434815848e+16  -3.2325630434815820e+16  -3.2325630434815820e+16  -3.2325630434815824e+16  -3.2325630434815856e+16  -3.2325630434815848e+16  -3.2325630434815864e+16  -3.2325630434815760e+16  -3.2325630434815768e+16  -3.2325630434815732e+16  -3.2325630434815832e+16  -3.2325630434815860e+16  -3.2325630434815744e+16  -3.2325630434815820e+16  -3.2325630434815836e+16  -3.2325630434815828e+16  -3.2325630434815788e+16  -3.2325630434815832e+16  -3.2325630434815812e+16  -3.2325630434815804e+16  -3.2325630434815828e+16  -3.2325630434815836e+16  -3.2325630434815840e+16  -3.2325630434815832e+16  -3.2325630434815832e+16  -3.2325630434815768e+16  -3.2325630434815844e+16  -3.2325630434815828e+16  -3.2325630434815836e+16  -3.2325630434815832e+16  -3.2325630434815856e+16  -3.2325630434815776e+16  -3.2325630434815796e+16  -3.2325630434815868e+16  -3.2325630434815868e+16  -3.2325630434815780e+16  -3.2325630434815772e+16  -3.2325630434815892e+16  -3.2325630434815888e+16  -3.2325630434815868e+16  -3.2325630434815760e+16  -3.2325630434815784e+16  -3.2325630434815908e+16  -3.2325630434815792e+16  -3.2325630434815820e+16  -3.2325630434815812e+16  -3.2325630434815780e+16  -3.2325630434815836e+16  -3.2325630434815824e+16  -3.2325630434815804e+16  -3.2325630434815812e+16  -3.2325630434815896e+16  -3.2325630434815888e+16  -3.2325630434815888e+16  -3.2325630434815904e+16  -3.2325630434815864e+16  -3.2325630434815908e+16  -3.2325630434815880e+16  -3.2325630434815876e+16  -3.2325630434815900e+16  -3.2325630434815884e+16  -3.2325630434815892e+16  -3.2325630434815860e+16  -3.2325630434815908e+16  -3.2325630434815852e+16  -3.2325630434815848e+16  -3.2325630434815848e+16  -3.2325630434815852e+16  -3.2325630434815896e+16  -3.2325630434815856e+16  -3.2325630434815784e+16  -3.2325630434815852e+16  -3.2325630434815848e+16  -3.2325630434815916e+16  -3.2325630434815784e+16  -3.2325630434815852e+16  -3.2325630434815844e+16  -3.2325630434815856e+16  -3.2325630434815808e+16  -3.2325630434815876e+16  -3.2325630434815780e+16  -3.2325630434815768e+16  -3.2325630434815860e+16  -3.2325630434815776e+16  -3.2325630434815780e+16  -3.2325630434815824e+16  -3.2325630434815840e+16  -3.2325630434815820e+16  -3.2325630434815836e+16  -3.2325630434815828e+16  -3.2325630434815880e+16  -3.2325630434815828e+16  -3.2325630434815824e+16  -3.2325630434815848e+16  -3.2325630434815840e+16  -3.2325630434815820e+16  -3.2325630434815896e+16  -3.2325630434815812e+16  -3.2325630434815908e+16  -3.2325630434815768e+16  -3.2325630434815864e+16  -3.2325630434815852e+16  -3.2325630434815852e+16  -3.2325630434815916e+16  -3.2325630434815852e+16  -3.2325630434815920e+16  -3.2325630434815784e+16  -3.2325630434815860e+16  -3.2325630434815780e+16  -3.2325630434815820e+16  -3.2325630434815840e+16  -3.2325630434815744e+16  -3.2325630434815848e+16  -3.2325630434815924e+16  -3.2325630434815828e+16  -3.2325630434815876e+16  -3.2325630434815920e+16  -3.2325630434815824e+16  -3.2325630434815832e+16  -3.2325630434815856e+16  -3.2325630434815828e+16  -3.2325630434815836e+16  -3.2325630434815892e+16  -3.2325630434815840e+16  -3.2325630434815760e+16  -3.2325630434815816e+16  -3.2325630434815844e+16  -3.2325630434815836e+16  -3.2325630434815928e+16  -3.2325630434815912e+16  -3.2325630434815844e+16  -3.2325630434815856e+16  -3.2325630434815836e+16  -3.2325630434815848e+16  -3.2325630434815804e+16  -3.2325630434815836e+16  -3.2325630434815840e+16  -3.2325630434815836e+16  -3.2325630434815752e+16  -3.2325630434815784e+16  -3.2325630434815840e+16  -3.2325630434815820e+16  -3.2325630434815920e+16  -3.2325630434815840e+16  -3.2325630434815848e+16  -3.2325630434815920e+16  -3.2325630434815876e+16  -3.2325630434815836e+16  -3.2325630434815868e+16  -3.2325630434815836e+16  -3.2325630434815840e+16  -3.2325630434815824e+16  -3.2325630434815932e+16  -3.2325630434815816e+16  -3.2325630434815948e+16  -3.2325630434815900e+16  -3.2325630434815792e+16  -3.2325630434815868e+16  -3.2325630434815796e+16  -3.2325630434815860e+16  -3.2325630434815760e+16  -3.2325630434815836e+16  -3.2325630434815880e+16  -3.2325630434815764e+16  -3.2325630434815788e+16  -3.2325630434815844e+16  -3.2325630434815932e+16  -3.2325630434815860e+16  -3.2325630434815880e+16  -3.2325630434815836e+16  -3.2325630434815928e+16  -3.2325630434815836e+16  -3.2325630434815840e+16  -3.2325630434815820e+16  -3.2325630434815832e+16  -3.2325630434815936e+16  -3.2325630434815828e+16  -3.2325630434815972e+16  -3.2325630434815888e+16  -3.2325630434815860e+16  -3.2325630434815868e+16  -3.2325630434815820e+16  -3.2325630434815808e+16  -3.2325630434815832e+16  -3.2325630434815848e+16  -3.2325630434815788e+16  -3.2325630434815832e+16  -3.2325630434815764e+16  -3.2325630434815792e+16  -3.2325630434815916e+16  -3.2325630434815764e+16  -3.2325630434815916e+16  -3.2325630434815920e+16  -3.2325630434815936e+16  -3.2325630434815836e+16  -3.2325630434815864e+16  -3.2325630434815876e+16  -3.2325630434815852e+16  -3.2325630434815848e+16  -3.2325630434815888e+16  -3.2325630434815820e+16  -3.2325630434815832e+16  -3.2325630434815936e+16  -3.2325630434815776e+16  -3.2325630434815900e+16  -3.2325630434815816e+16  -3.2325630434815800e+16  -3.2325630434815984e+16  -3.2325630434815788e+16  -3.2325630434815804e+16  -3.2325630434815840e+16  -3.2325630434815912e+16  -3.2325630434815800e+16  -3.2325630434815824e+16  -3.2325630434815864e+16  -3.2325630434815804e+16  -3.2325630434815808e+16  -3.2325630434815848e+16  -3.2325630434815768e+16  -3.2325630434815772e+16  -3.2325630434815808e+16  -3.2325630434815836e+16  -3.2325630434815812e+16  -3.2325630434815796e+16  -3.2325630434815848e+16  -3.2325630434815776e+16  -3.2325630434815792e+16  -3.2325630434815820e+16  -3.2325630434815788e+16  -3.2325630434815912e+16  -3.2325630434815820e+16  -3.2325630434815804e+16  -3.2325630434815920e+16  -3.2325630434815828e+16  -3.2325630434815860e+16  -3.2325630434815848e+16  -3.2325630434815864e+16  -3.2325630434815808e+16  -3.2325630434815912e+16  -3.2325630434815868e+16  -3.2325630434815952e+16  -3.2325630434815816e+16  -3.2325630434815980e+16  -3.2325630434815832e+16  -3.2325630434815796e+16  -3.2325630434815896e+16  -3.2325630434815896e+16  -3.2325630434815856e+16  -3.2325630434815816e+16  -3.2325630434815840e+16  -3.2325630434815820e+16  -3.2325630434815832e+16  -3.2325630434815864e+16  -3.2325630434815812e+16  -3.2325630434815800e+16  -3.2325630434815776e+16  -3.2325630434815836e+16  -3.2325630434815884e+16  -3.2325630434815776e+16  -3.2325630434815892e+16  -3.2325630434815852e+16  -3.2325630434815940e+16  -3.2325630434815764e+16  -3.2325630434815800e+16  -3.2325630434815788e+16  -3.2325630434815924e+16  -3.2325630434815908e+16  -3.2325630434815872e+16  -3.2325630434815792e+16  -3.2325630434815784e+16  -3.2325630434815924e+16  -3.2325630434815820e+16  -3.2325630434815864e+16  -3.2325630434815872e+16  -3.2325630434815860e+16  -3.2325630434815884e+16  -3.2325630434815864e+16  -3.2325630434815824e+16  -3.2325630434815836e+16  -3.2325630434815916e+16  -3.2325630434815812e+16  -3.2325630434815964e+16  -3.2325630434815804e+16  -3.2325630434815792e+16  -3.2325630434815972e+16  -3.2325630434815840e+16  -3.2325630434815852e+16  -3.2325630434815936e+16  -3.2325630434815964e+16  -3.2325630434815856e+16  -3.2325630434815840e+16  -3.2325630434815856e+16  -3.2325630434815804e+16  -3.2325630434815872e+16  -3.2325630434815836e+16  -3.2325630434815836e+16  -3.2325630434815960e+16  -3.2325630434815784e+16  -3.2325630434815800e+16  -3.2325630434815812e+16  -3.2325630434815780e+16  -3.2325630434815872e+16  -3.2325630434815784e+16  -3.2325630434815848e+16  -3.2325630434815860e+16  -3.2325630434815772e+16  -3.2325630434815912e+16  -3.2325630434815880e+16  -3.2325630434815912e+16  -3.2325630434815920e+16  -3.2325630434815856e+16  -3.2325630434815864e+16  -3.2325630434815908e+16  -3.2325630434815800e+16  -3.2325630434815892e+16  -3.2325630434815876e+16  -3.2325630434815764e+16  -3.2325630434815968e+16  -3.2325630434815832e+16  -3.2325630434815876e+16  -3.2325630434815968e+16  -3.2325630434815844e+16  -3.2325630434815828e+16  -3.2325630434815820e+16  -3.2325630434815860e+16  -3.2325630434815932e+16  -3.2325630434815952e+16  -3.2325630434815820e+16  -3.2325630434815856e+16  -3.2325630434815848e+16  -3.2325630434815836e+16  -3.2325630434815800e+16  -3.2325630434815924e+16  -3.2325630434815840e+16  -3.2325630434815780e+16  -3.2325630434815844e+16  -3.2325630434815948e+16  -3.2325630434815800e+16  -3.2325630434815812e+16  -3.2325630434815764e+16  -3.2325630434815892e+16  -3.2325630434815776e+16  -3.2325630434815884e+16  -3.2325630434815828e+16  -3.2325630434815912e+16  -3.2325630434815860e+16  -3.2325630434815896e+16  -3.2325630434815868e+16  -3.2325630434815880e+16  -3.2325630434815868e+16  -3.2325630434815912e+16  -3.2325630434815904e+16  -3.2325630434815960e+16  -3.2325630434815916e+16  -3.2325630434815848e+16  -3.2325630434815892e+16  -3.2325630434815920e+16  -3.2325630434815964e+16  -3.2325630434815824e+16  -3.2325630434815908e+16  -3.2325630434815824e+16  -3.2325630434815840e+16  -3.2325630434815832e+16  -3.2325630434815784e+16  -3.2325630434815824e+16  -3.2325630434815856e+16  -3.2325630434815808e+16  -3.2325630434815920e+16  -3.2325630434815864e+16  -3.2325630434815792e+16  -3.2325630434815948e+16  -3.2325630434815836e+16  -3.2325630434815896e+16  -3.2325630434815800e+16  -3.2325630434815856e+16  -3.2325630434815784e+16  -3.2325630434815864e+16  -3.2325630434815808e+16  -3.2325630434815800e+16  -3.2325630434815876e+16  -3.2325630434815944e+16  -3.2325630434815808e+16  -3.2325630434815872e+16  -3.2325630434815900e+16  -3.2325630434815824e+16  -3.2325630434815888e+16  -3.2325630434815872e+16  -3.2325630434815896e+16  -3.2325630434815884e+16  -3.2325630434815828e+16  -3.2325630434815840e+16  -3.2325630434815856e+16  -3.2325630434815908e+16  -3.2325630434815796e+16  -3.2325630434815892e+16  -3.2325630434815964e+16  -3.2325630434815928e+16  -3.2325630434815880e+16  -3.2325630434815844e+16  -3.2325630434815832e+16  -3.2325630434815856e+16  -3.2325630434815868e+16  -3.2325630434815808e+16  -3.2325630434815848e+16  -3.2325630434815868e+16  -3.2325630434815804e+16  -3.2325630434815856e+16  -3.2325630434815796e+16  -3.2325630434815868e+16  -3.2325630434815840e+16  -3.2325630434815896e+16  -3.2325630434815836e+16  -3.2325630434815852e+16  -3.2325630434815880e+16  -3.2325630434815888e+16  -3.2325630434815852e+16  -3.2325630434815924e+16  -3.2325630434815864e+16  -3.2325630434815808e+16  -3.2325630434815928e+16  -3.2325630434815864e+16  -3.2325630434815816e+16  -3.2325630434815820e+16  -3.2325630434815924e+16  -3.2325630434815820e+16  -3.2325630434815900e+16  -3.2325630434815784e+16  -3.2325630434815876e+16  -3.2325630434815904e+16  -3.2325630434815900e+16  -3.2325630434815896e+16  -3.2325630434815828e+16  -3.2325630434815836e+16  -3.2325630434815812e+16  -3.2325630434815896e+16  -3.2325630434815868e+16  -3.2325630434815868e+16  -3.2325630434815800e+16  -3.2325630434815828e+16  -3.2325630434815840e+16  -3.2325630434815836e+16  -3.2325630434815860e+16  -3.2325630434815788e+16  -3.2325630434815920e+16  -3.2325630434815836e+16  -3.2325630434815856e+16  -3.2325630434815876e+16  -3.2325630434815884e+16  -3.2325630434815848e+16  -3.2325630434815844e+16  -3.2325630434815908e+16  -3.2325630434815856e+16  -3.2325630434815820e+16  -3.2325630434815860e+16  -3.2325630434815796e+16  -3.2325630434815928e+16  -3.2325630434815892e+16  -3.2325630434815884e+16  -3.2325630434815820e+16  -3.2325630434815848e+16  -3.2325630434815848e+16  -3.2325630434815788e+16  -3.2325630434815848e+16  -3.2325630434815892e+16  -3.2325630434815804e+16  -3.2325630434815848e+16  -3.2325630434815888e+16  -3.2325630434815832e+16  -3.2325630434815872e+16  -3.2325630434815796e+16  -3.2325630434815900e+16  -3.2325630434815920e+16  -3.2325630434815828e+16  -3.2325630434815820e+16  -3.2325630434815828e+16  -3.2325630434815896e+16  -3.2325630434815832e+16  -3.2325630434815852e+16  -3.2325630434815792e+16  -3.2325630434815784e+16  -3.2325630434815888e+16  -3.2325630434815828e+16  -3.2325630434815872e+16  -3.2325630434815856e+16  -3.2325630434815840e+16  -3.2325630434815884e+16  -3.2325630434815840e+16  -3.2325630434815804e+16  -3.2325630434815832e+16  -3.2325630434815816e+16  -3.2325630434815892e+16  -3.2325630434815860e+16  -3.2325630434815808e+16  -3.2325630434815868e+16  -3.2325630434815856e+16  -3.2325630434815904e+16  -3.2325630434815920e+16  -3.2325630434815856e+16  -3.2325630434815840e+16  -3.2325630434815880e+16  -3.2325630434815904e+16  -3.2325630434815812e+16  -3.2325630434815780e+16  -3.2325630434815840e+16  -3.2325630434815900e+16  -3.2325630434815828e+16  -3.2325630434815804e+16  -3.2325630434815848e+16  -3.2325630434815828e+16  -3.2325630434815788e+16  -3.2325630434815884e+16  -3.2325630434815872e+16  -3.2325630434815788e+16  -3.2325630434815884e+16  -3.2325630434815856e+16  -3.2325630434815788e+16  -3.2325630434815836e+16  -3.2325630434815804e+16  -3.2325630434815860e+16  -3.2325630434815828e+16  -3.2325630434815824e+16  -3.2325630434815792e+16  -3.2325630434815884e+16  -3.2325630434815840e+16  -3.2325630434815864e+16  -3.2325630434815828e+16  -3.2325630434815816e+16  -3.2325630434815860e+16  -3.2325630434815876e+16  -3.2325630434815772e+16  -3.2325630434815836e+16  -3.2325630434815772e+16  -3.2325630434815852e+16  -3.2325630434815840e+16  -3.2325630434815780e+16  -3.2325630434815848e+16  -3.2325630434815908e+16  -3.2325630434815808e+16  -3.2325630434815796e+16  -3.2325630434815820e+16  -3.2325630434815864e+16  -3.2325630434815872e+16  -3.2325630434815820e+16  -3.2325630434815856e+16  -3.2325630434815788e+16  -3.2325630434815912e+16  -3.2325630434815876e+16  -3.2325630434815752e+16  -3.2325630434815864e+16  -3.2325630434815788e+16  -3.2325630434815888e+16  -3.2325630434815812e+16  -3.2325630434815784e+16  -3.2325630434815808e+16  -3.2325630434815880e+16  -3.2325630434815892e+16  -3.2325630434815800e+16  -3.2325630434815824e+16  -3.2325630434815784e+16  -3.2325630434815796e+16  -3.2325630434815780e+16  -3.2325630434815824e+16  -3.2325630434815808e+16  -3.2325630434815808e+16  -3.2325630434815828e+16  -3.2325630434815760e+16  -3.2325630434815756e+16  -3.2325630434815804e+16  -3.2325630434815804e+16  -3.2325630434815756e+16  -3.2325630434815804e+16  -3.2325630434815764e+16  -3.2325630434815784e+16  -3.2325630434815800e+16  -3.2325630434815796e+16  -3.2325630434815760e+16  -3.2325630434815764e+16  -3.2325630434815788e+16  -3.2325630434815744e+16  -3.2325630434815788e+16  -3.2325630434815744e+16  -3.2325630434815872e+16  -3.2325630434815880e+16  -3.2325630434815928e+16  -3.2325630434815856e+16  -3.2325630434815780e+16  -3.2325630434815904e+16  -3.2325630434815864e+16  -3.2325630434815828e+16  -3.2325630434815836e+16  -3.2325630434815832e+16  -3.2325630434815884e+16  -3.2325630434815872e+16  -3.2325630434815852e+16  -3.2325630434815856e+16  -3.2325630434815892e+16  -3.2325630434815840e+16  -3.2325630434815844e+16  -3.2325630434815848e+16  -3.2325630434815880e+16  -3.2325630434815872e+16  -3.2325630434815920e+16  -3.2325630434815800e+16  -3.2325630434815916e+16  -3.2325630434815832e+16  -3.2325630434815768e+16  -3.2325630434815872e+16  -3.2325630434815840e+16  -3.2325630434815788e+16  -3.2325630434815848e+16  -3.2325630434815812e+16  -3.2325630434815876e+16  -3.2325630434815812e+16  -3.2325630434815848e+16  -3.2325630434815788e+16  -3.2325630434815900e+16  -3.2325630434815872e+16  -3.2325630434815864e+16  -3.2325630434815868e+16  -3.2325630434815900e+16  -3.2325630434815880e+16  -3.2325630434815940e+16  -3.2325630434815836e+16  -3.2325630434815792e+16  -3.2325630434815864e+16  -3.2325630434815888e+16  -3.2325630434815800e+16  -3.2325630434815788e+16  -3.2325630434815800e+16  -3.2325630434815776e+16  -3.2325630434815780e+16  -3.2325630434815832e+16  -3.2325630434815816e+16  -3.2325630434815844e+16  -3.2325630434815752e+16  -3.2325630434815852e+16  -3.2325630434815840e+16  -3.2325630434815856e+16  -3.2325630434815964e+16  -3.2325630434815828e+16  -3.2325630434815788e+16  -3.2325630434815772e+16  -3.2325630434815824e+16  -3.2325630434815868e+16  -3.2325630434815888e+16  -3.2325630434815824e+16  -3.2325630434815884e+16  -3.2325630434815876e+16  -3.2325630434815896e+16  -3.2325630434815764e+16  -3.2325630434815824e+16  -3.2325630434815880e+16  -3.2325630434815804e+16  -3.2325630434815852e+16  -3.2325630434815900e+16  -3.2325630434815864e+16  -3.2325630434815852e+16  -3.2325630434815772e+16  -3.2325630434815816e+16  -3.2325630434815844e+16  -3.2325630434815860e+16  -3.2325630434815912e+16  -3.2325630434815832e+16  -3.2325630434815832e+16  -3.2325630434815888e+16  -3.2325630434815840e+16  -3.2325630434815908e+16  -3.2325630434815808e+16  -3.2325630434815856e+16  -3.2325630434815864e+16  -3.2325630434815796e+16  -3.2325630434815876e+16  -3.2325630434815868e+16  -3.2325630434815812e+16  -3.2325630434815764e+16  -3.2325630434815912e+16  -3.2325630434815860e+16  -3.2325630434815852e+16  -3.2325630434815820e+16  -3.2325630434815900e+16  -3.2325630434815788e+16  -3.2325630434815852e+16  -3.2325630434815880e+16  -3.2325630434815784e+16  -3.2325630434815804e+16  -3.2325630434815864e+16  -3.2325630434815840e+16  -3.2325630434815860e+16  -3.2325630434815844e+16  -3.2325630434815896e+16  -3.2325630434815804e+16  -3.2325630434815792e+16  -3.2325630434815812e+16  -3.2325630434815920e+16  -3.2325630434815788e+16  -3.2325630434815788e+16  -3.2325630434815884e+16  -3.2325630434815828e+16  -3.2325630434815888e+16  -3.2325630434815844e+16  -3.2325630434815872e+16  -3.2325630434815752e+16  -3.2325630434815856e+16  -3.2325630434815816e+16  -3.2325630434815908e+16  -3.2325630434815856e+16  -3.2325630434815868e+16  -3.2325630434815840e+16  -3.2325630434815876e+16  -3.2325630434815804e+16  -3.2325630434815792e+16  -3.2325630434815916e+16  -3.2325630434815840e+16  -3.2325630434815924e+16  -3.2325630434815836e+16  -3.2325630434815840e+16  -3.2325630434815892e+16  -3.2325630434815868e+16  -3.2325630434815900e+16  -3.2325630434815904e+16  -3.2325630434815828e+16  -3.2325630434815804e+16  -3.2325630434815804e+16  -3.2325630434815880e+16  -3.2325630434815932e+16  -3.2325630434815816e+16  -3.2325630434815852e+16  -3.2325630434815884e+16  -3.2325630434815828e+16  -3.2325630434815832e+16  -3.2325630434815772e+16  -3.2325630434815844e+16  -3.2325630434815800e+16  -3.2325630434815780e+16  -3.2325630434815832e+16  -3.2325630434815804e+16  -3.2325630434815924e+16  -3.2325630434815852e+16  -3.2325630434815844e+16  -3.2325630434815804e+16  -3.2325630434815784e+16  -3.2325630434815788e+16  -3.2325630434815840e+16  -3.2325630434815864e+16  -3.2325630434815896e+16  -3.2325630434815812e+16  -3.2325630434815880e+16  -3.2325630434815852e+16  -3.2325630434815896e+16  -3.2325630434815792e+16  -3.2325630434815872e+16  -3.2325630434815796e+16  -3.232563043481