<?xml version="1.0"?>
<VTKFile type="UnstructuredGrid"  version="0.1"  >
<UnstructuredGrid>
<Piece  NumberOfPoints="51" NumberOfCells="96">
<Points>
<DataArray  type="Float64"  NumberOfComponents="3"  format="ascii">0.6279052000000001 -9.980267 100  -1.873813 -9.822873 100  -1.873813 -9.822873 0  0.6279052000000001 -9.980267 0  3.09017 -9.510565 100  3.09017 -9.510565 0  9.685832 2.486899 100  10 -2.449294e-15 0  9.685832 2.486899 0  5.358268 -8.443279 100  10 -2.449294e-15 100  5.358268 -8.443279 0  7.289686 -6.845471 100  8.763066999999999 4.817537 100  8.763066999999999 4.817537 0  7.289686 -6.845471 0  8.763066999999999 -4.817537 100  8.763066999999999 -4.817537 0  7.289686 6.845471 100  7.289686 6.845471 0  9.685832 -2.486899 100  9.685832 -2.486899 0  5.358268 8.443279 100  5.358268 8.443279 0  3.09017 9.510565 100  3.09017 9.510565 0  0.6279052000000001 9.980267 100  0.6279052000000001 9.980267 0  -1.873813 9.822873 100  -1.873813 9.822873 0  -4.257793 9.048271 100  -4.257793 9.048271 0  -6.37424 7.705132 100  -6.37424 7.705132 0  -8.090170000000001 5.877853 100  -8.090170000000001 5.877853 0  -9.297765 3.681246 100  -9.297765 3.681246 0  -9.921146999999999 1.253332 100  -9.921146999999999 1.253332 0  -9.921146999999999 -1.253332 100  -9.921146999999999 -1.253332 0  -9.297765 -3.681246 100  -9.297765 -3.681246 0  -8.090170000000001 -5.877853 100  -8.090170000000001 -5.877853 0  -6.37424 -7.705132 100  -6.37424 -7.705132 0  -4.257793 -9.048271 100  -4.257793 -9.048271 0  -4.460784047995639e-08 4.096001087089821e-16 50  </DataArray>
</Points>
<Cells>
<DataArray  type="UInt32"  Name="connectivity"  format="ascii">44 45 46 50  45 46 47 50  33 34 35 50  32 33 34 50  43 44 45 50  42 43 44 50  34 35 36 50  35 36 37 50  40 41 42 50  41 42 43 50  37 38 39 50  36 37 38 50  38 39 40 50  39 40 41 50  19 27 29 50  7 19 21 50  2 3 19 50  19 33 35 50  19 45 47 50  2 19 49 50  19 43 45 50  11 15 19 50  19 35 37 50  5 11 19 50  19 23 25 50  19 39 41 50  19 41 43 50  19 37 39 50  19 29 31 50  3 5 19 50  19 47 49 50  17 19 21 50  19 25 27 50  19 31 33 50  15 17 19 50  8 14 19 50  7 8 19 50  18 26 28 50  10 18 20 50  0 1 18 50  18 32 34 50  18 44 46 50  1 18 48 50  18 42 44 50  9 12 18 50  18 34 36 50  4 9 18 50  18 22 24 50  18 38 40 50  18 40 42 50  18 36 38 50  18 28 30 50  0 4 18 50  18 46 48 50  16 18 20 50  18 24 26 50  18 30 32 50  12 16 18 50  6 13 18 50  6 10 18 50  1 48 49 50  23 24 25 50  16 17 20 50  18 19 22 50  3 4 5 50  10 20 21 50  47 48 49 50  6 7 8 50  22 23 24 50  0 3 4 50  8 13 14 50  17 20 21 50  11 12 15 50  1 2 49 50  27 28 29 50  24 25 26 50  29 30 31 50  30 31 32 50  7 10 21 50  4 5 9 50  26 27 28 50  14 18 19 50  46 47 48 50  0 2 3 50  19 22 23 50  15 16 17 50  6 7 10 50  0 1 2 50  25 26 27 50  12 15 16 50  5 9 11 50  13 14 18 50  28 29 30 50  31 32 33 50  9 11 12 50  6 8 13 50  </DataArray>
<DataArray  type="UInt32"  Name="offsets"  format="ascii">4 8 12 16 20 24 28 32 36 40 44 48 52 56 60 64 68 72 76 80 84 88 92 96 100 104 108 112 116 120 124 128 132 136 140 144 148 152 156 160 164 168 172 176 180 184 188 192 196 200 204 208 212 216 220 224 228 232 236 240 244 248 252 256 260 264 268 272 276 280 284 288 292 296 300 304 308 312 316 320 324 328 332 336 340 344 348 352 356 360 364 368 372 376 380 384 </DataArray>
<DataArray  type="UInt8"  Name="types"  format="ascii">10 10 10 10 10 10 10 10 10 10 10 10 10 10 10 10 10 10 10 10 10 10 10 10 10 10 10 10 10 10 10 10 10 10 10 10 10 10 10 10 10 10 10 10 10 10 10 10 10 10 10 10 10 10 10 10 10 10 10 10 10 10 10 10 10 10 10 10 10 10 10 10 10 10 10 10 10 10 10 10 10 10 10 10 10 10 10 10 10 10 10 10 10 10 10 10 </DataArray>
</Cells>
<PointData  Scalars="f_27"> 
<DataArray  type="Float64"  Name="f_27"  format="ascii">-5.5712332955646607e-02  3.7115902309866854e-02  -4.6263656591044020e-02  6.5216265366327950e-02  7.6256302295782286e-02  -8.6091888234552758e-02  2.0863688656813148e-01  1.9834247652876902e-01  -2.1364230706626619e-01  -9.8480617063981257e-02  -1.9133518339424044e-01  1.0850712820140232e-01  1.2226723728314040e-01  -2.2020301165282710e-01  2.2281366418703100e-01  -1.3221429574206231e-01  -1.4648854329266878e-01  1.5596095276724567e-01  2.2518156600563236e-01  -2.2518160060459663e-01  1.7013853791595834e-01  -1.7864508469032378e-01  -2.2281445760531804e-01  2.2020387416104686e-01  2.1364353864111554e-01  -2.0863818339145981e-01  -1.9834385168522062e-01  1.9133661334390153e-01  1.7864639015104569e-01  -1.7013988394048651e-01  -1.5596206450234812e-01  1.4648968210558364e-01  1.3221527214573298e-01  -1.2226822887683239e-01  -1.0850798551292579e-01  9.8481481095004555e-02  8.6092587157078002e-02  -7.6257002757867690e-02  -6.5216858973086045e-02  5.5712923102357148e-02  4.6264192758502840e-02  -3.7116434839503602e-02  -2.8719781315995067e-02  1.9861107416458884e-02  1.2376797067277416e-02  -3.6781437789586814e-03  3.6776448697739251e-03  -1.2376297253675967e-02  -1.9860604361445666e-02  2.8719276735445349e-02  -9.6273894907667619e-11  </DataArray> 
</PointData> 
</Piece>
</UnstructuredGrid>
</VTKFile>